 Gaussian 09, Revision E.01,

 ----------------------------------------------------------
 #p lc-blyp/def2svp iop(3/107=0400000000, 3/108=0400000000)
 ----------------------------------------------------------

 -----------------------------------
 H2Pc dimer, monomer geom b3pw/631dp
 -----------------------------------
 Symbolic Z-matrix:
 Charge =  0 Multiplicity = 1

 SCF Done:  E(RLC-B+HF-LYP) =  -3325.16074332     A.U. after   16 cycles
 Normal termination of Gaussian 09 at Thu May 15 16:29:07 2025.
 Gaussian 09:  ES64L-G09RevE.01 30-Nov-2015

 ----------------------------------------------------------------------
 #p td(nstates=8) lc-blyp/gen iop(3/107=0400000000, 3/108=0400000000) g
 eom=check guess=read
 ----------------------------------------------------------------------

 -----------------------------------------------------------------
 H2Pc dimer lc-blyp(mu=0.4)/def2-tzvp(-f), monomer geom b3pw/631dp
 -----------------------------------------------------------------
 Structure from the checkpoint file:  "H2Pc_2X_40.chk"
 Charge =  0 Multiplicity = 1

                         Standard orientation:
 ---------------------------------------------------------------------
 Center     Atomic      Atomic             Coordinates (Angstroms)
 Number     Number       Type             X           Y           Z
 ---------------------------------------------------------------------
      1          6           0       -6.542878    0.701674    2.000000
      2          6           0       -6.542878   -0.701674    2.000000
      3          6           0       -5.349643    1.423490    2.000000
      4          6           0       -4.161429    0.700602    2.000000
      5          6           0       -4.161429   -0.700602    2.000000
      6          6           0       -5.349643   -1.423490    2.000000
      7          6           0       -2.751318    1.093433    2.000000
      8          6           0       -2.751318   -1.093433    2.000000
      9          7           0       -1.939706    0.000000    2.000000
     10          7           0       -2.391962   -2.377060    2.000000
     11          7           0       -2.391962    2.377060    2.000000
     12          1           0       -7.491036    1.232091    2.000000
     13          1           0       -7.491036   -1.232091    2.000000
     14          1           0       -5.340465    2.508839    2.000000
     15          1           0       -5.340465   -2.508839    2.000000
     16          6           0        0.703892    6.550134    2.000000
     17          6           0       -0.703892    6.550134    2.000000
     18          6           0        1.424671    5.362507    2.000000
     19          6           0        0.705223    4.167102    2.000000
     20          6           0       -0.705223    4.167102    2.000000
     21          6           0       -1.424671    5.362507    2.000000
     22          6           0        1.141499    2.784286    2.000000
     23          6           0       -1.141499    2.784286    2.000000
     24          7           0        0.000000    2.021288    2.000000
     25          7           0        2.391962    2.377060    2.000000
     26          1           0        1.233211    7.498621    2.000000
     27          1           0       -1.233211    7.498621    2.000000
     28          1           0        2.509691    5.351954    2.000000
     29          1           0       -2.509691    5.351954    2.000000
     30          6           0       -0.703892   -6.550134    2.000000
     31          6           0        0.703892   -6.550134    2.000000
     32          6           0       -1.424671   -5.362507    2.000000
     33          6           0       -0.705223   -4.167102    2.000000
     34          6           0        0.705223   -4.167102    2.000000
     35          6           0        1.424671   -5.362507    2.000000
     36          6           0       -1.141499   -2.784286    2.000000
     37          6           0        1.141499   -2.784286    2.000000
     38          7           0       -0.000000   -2.021288    2.000000
     39          7           0        2.391962   -2.377060    2.000000
     40          1           0       -1.233211   -7.498621    2.000000
     41          1           0        1.233211   -7.498621    2.000000
     42          1           0       -2.509691   -5.351954    2.000000
     43          1           0        2.509691   -5.351954    2.000000
     44          6           0        6.542878   -0.701674    2.000000
     45          6           0        6.542878    0.701674    2.000000
     46          6           0        5.349643   -1.423490    2.000000
     47          6           0        4.161429   -0.700602    2.000000
     48          6           0        4.161429    0.700602    2.000000
     49          6           0        5.349643    1.423490    2.000000
     50          6           0        2.751318   -1.093433    2.000000
     51          6           0        2.751318    1.093433    2.000000
     52          7           0        1.939706    0.000000    2.000000
     53          1           0        7.491036   -1.232091    2.000000
     54          1           0        7.491036    1.232091    2.000000
     55          1           0        5.340465   -2.508839    2.000000
     56          1           0        5.340465    2.508839    2.000000
     57          1           0        0.000000    1.006983    2.000000
     58          1           0       -0.000000   -1.006983    2.000000
     59          6           0       -0.701674    6.542878   -2.000000
     60          6           0        0.701674    6.542878   -2.000000
     61          6           0       -1.423490    5.349643   -2.000000
     62          6           0       -0.700602    4.161429   -2.000000
     63          6           0        0.700602    4.161429   -2.000000
     64          6           0        1.423490    5.349643   -2.000000
     65          6           0       -1.093433    2.751318   -2.000000
     66          6           0        1.093433    2.751318   -2.000000
     67          7           0        0.000000    1.939706   -2.000000
     68          7           0        2.377060    2.391962   -2.000000
     69          7           0       -2.377060    2.391962   -2.000000
     70          1           0       -1.232091    7.491036   -2.000000
     71          1           0        1.232091    7.491036   -2.000000
     72          1           0       -2.508839    5.340465   -2.000000
     73          1           0        2.508839    5.340465   -2.000000
     74          6           0       -6.550134   -0.703892   -2.000000
     75          6           0       -6.550134    0.703892   -2.000000
     76          6           0       -5.362507   -1.424671   -2.000000
     77          6           0       -4.167102   -0.705223   -2.000000
     78          6           0       -4.167102    0.705223   -2.000000
     79          6           0       -5.362507    1.424671   -2.000000
     80          6           0       -2.784286   -1.141499   -2.000000
     81          6           0       -2.784286    1.141499   -2.000000
     82          7           0       -2.021288    0.000000   -2.000000
     83          7           0       -2.377060   -2.391962   -2.000000
     84          1           0       -7.498621   -1.233211   -2.000000
     85          1           0       -7.498621    1.233211   -2.000000
     86          1           0       -5.351954   -2.509691   -2.000000
     87          1           0       -5.351954    2.509691   -2.000000
     88          6           0        6.550134    0.703892   -2.000000
     89          6           0        6.550134   -0.703892   -2.000000
     90          6           0        5.362507    1.424671   -2.000000
     91          6           0        4.167102    0.705223   -2.000000
     92          6           0        4.167102   -0.705223   -2.000000
     93          6           0        5.362507   -1.424671   -2.000000
     94          6           0        2.784286    1.141499   -2.000000
     95          6           0        2.784286   -1.141499   -2.000000
     96          7           0        2.021288   -0.000000   -2.000000
     97          7           0        2.377060   -2.391962   -2.000000
     98          1           0        7.498621    1.233211   -2.000000
     99          1           0        7.498621   -1.233211   -2.000000
    100          1           0        5.351954    2.509691   -2.000000
    101          1           0        5.351954   -2.509691   -2.000000
    102          6           0        0.701674   -6.542878   -2.000000
    103          6           0       -0.701674   -6.542878   -2.000000
    104          6           0        1.423490   -5.349643   -2.000000
    105          6           0        0.700602   -4.161429   -2.000000
    106          6           0       -0.700602   -4.161429   -2.000000
    107          6           0       -1.423490   -5.349643   -2.000000
    108          6           0        1.093433   -2.751318   -2.000000
    109          6           0       -1.093433   -2.751318   -2.000000
    110          7           0       -0.000000   -1.939706   -2.000000
    111          1           0        1.232091   -7.491036   -2.000000
    112          1           0       -1.232091   -7.491036   -2.000000
    113          1           0        2.508839   -5.340465   -2.000000
    114          1           0       -2.508839   -5.340465   -2.000000
    115          1           0       -1.006983    0.000000   -2.000000
    116          1           0        1.006983   -0.000000   -2.000000
 ---------------------------------------------------------------------

 SCF Done:  E(RLC-B+HF-LYP) =  -3328.65402170     A.U. after   13 cycles

 Excitation energies and oscillator strengths:

 Excited State   1:      Singlet-E      1.4892 eV  832.58 nm  f=0.0066  <S**2>=0.000
     264 -> 268        0.11829
     265 -> 269        0.31015
     266 -> 267        0.60938
     266 -> 269        0.11539
 This state for optimization and/or second-order correction.
 Total Energy, E(TD-HF/TD-KS) =  -3328.59929611
 Copying the excited state density for this state as the 1-particle RhoCI density.

 Excited State   2:      Singlet-E      1.4892 eV  832.58 nm  f=0.0066  <S**2>=0.000
     264 -> 267       -0.11831
     265 -> 270        0.31014
     266 -> 268        0.60938
     266 -> 270       -0.11539

 Excited State   3:      Singlet-E      1.8757 eV  661.01 nm  f=0.6934  <S**2>=0.000
     259 -> 267       -0.10953
     263 -> 267        0.11113
     264 -> 269       -0.15098
     265 -> 268        0.46126
     266 -> 268        0.13694
     266 -> 270        0.46841

 Excited State   4:      Singlet-E      1.8757 eV  661.01 nm  f=0.6934  <S**2>=0.000
     259 -> 268        0.10953
     263 -> 268       -0.11109
     264 -> 270        0.15096
     265 -> 267        0.46127
     266 -> 267       -0.13693
     266 -> 269        0.46842

 Excited State   5:      Singlet-E      2.4465 eV  506.79 nm  f=0.0008  <S**2>=0.000
     265 -> 267        0.50754
     265 -> 269       -0.13432
     266 -> 267        0.14168
     266 -> 269       -0.45035

 Excited State   6:      Singlet-E      2.4465 eV  506.79 nm  f=0.0008  <S**2>=0.000
     265 -> 268        0.50755
     265 -> 270        0.13432
     266 -> 268       -0.14167
     266 -> 270       -0.45034

 Excited State   7:      Singlet-E      2.5699 eV  482.44 nm  f=0.0010  <S**2>=0.000
     265 -> 270        0.60218
     266 -> 268       -0.29192
     266 -> 270        0.19809

 Excited State   8:      Singlet-E      2.5699 eV  482.44 nm  f=0.0010  <S**2>=0.000
     265 -> 269        0.60218
     266 -> 267       -0.29193
     266 -> 269       -0.19807

 The electronic state is 1-A1.
 Alpha  occ. eigenvalues --  -14.26072 -14.26072 -14.26072 -14.26072 -14.21496
 Alpha  occ. eigenvalues --  -14.21496 -14.21496 -14.21496 -14.21496 -14.21496
 Alpha  occ. eigenvalues --  -14.21495 -14.21495 -14.20150 -14.20150 -14.20149
 Alpha  occ. eigenvalues --  -14.20149 -10.20049 -10.20049 -10.20049 -10.20049
 Alpha  occ. eigenvalues --  -10.20043 -10.20043 -10.20042 -10.20042 -10.18389
 Alpha  occ. eigenvalues --  -10.18389 -10.18389 -10.18389 -10.18383 -10.18383
 Alpha  occ. eigenvalues --  -10.18383 -10.18383 -10.12757 -10.12757 -10.12757
 Alpha  occ. eigenvalues --  -10.12756 -10.12722 -10.12722 -10.12722 -10.12722
 Alpha  occ. eigenvalues --  -10.12291 -10.12291 -10.12291 -10.12291 -10.12287
 Alpha  occ. eigenvalues --  -10.12287 -10.12287 -10.12287 -10.12119 -10.12119
 Alpha  occ. eigenvalues --  -10.12119 -10.12119 -10.12080 -10.12080 -10.12080
 Alpha  occ. eigenvalues --  -10.12080 -10.11582 -10.11582 -10.11582 -10.11581
 Alpha  occ. eigenvalues --  -10.11578 -10.11578 -10.11577 -10.11577 -10.11442
 Alpha  occ. eigenvalues --  -10.11442 -10.11442 -10.11442 -10.11431 -10.11431
 Alpha  occ. eigenvalues --  -10.11431 -10.11431 -10.11400 -10.11400 -10.11400
 Alpha  occ. eigenvalues --  -10.11400 -10.11395 -10.11395 -10.11395 -10.11395
 Alpha  occ. eigenvalues --   -1.16891  -1.16808  -1.16255  -1.16255  -1.13350
 Alpha  occ. eigenvalues --   -1.13350  -1.11385  -1.11318  -1.09206  -1.09122
 Alpha  occ. eigenvalues --   -1.05235  -1.05235  -1.04670  -1.04670  -1.01694
 Alpha  occ. eigenvalues --   -1.01622  -1.01252  -1.01232  -1.01186  -1.01186
 Alpha  occ. eigenvalues --   -0.99749  -0.99749  -0.99696  -0.99659  -0.92146
 Alpha  occ. eigenvalues --   -0.92019  -0.92018  -0.92008  -0.92008  -0.91961
 Alpha  occ. eigenvalues --   -0.90641  -0.90641  -0.89727  -0.89727  -0.89681
 Alpha  occ. eigenvalues --   -0.89558  -0.89558  -0.89538  -0.89439  -0.89392
 Alpha  occ. eigenvalues --   -0.86207  -0.86102  -0.83873  -0.83873  -0.83051
 Alpha  occ. eigenvalues --   -0.83051  -0.79818  -0.79777  -0.79016  -0.79016
 Alpha  occ. eigenvalues --   -0.77311  -0.77290  -0.76149  -0.76128  -0.76128
 Alpha  occ. eigenvalues --   -0.76050  -0.75491  -0.75425  -0.73770  -0.73770
 Alpha  occ. eigenvalues --   -0.73636  -0.73604  -0.72690  -0.72690  -0.71630
 Alpha  occ. eigenvalues --   -0.71567  -0.70738  -0.70653  -0.69794  -0.69794
 Alpha  occ. eigenvalues --   -0.69499  -0.69499  -0.66734  -0.66734  -0.66554
 Alpha  occ. eigenvalues --   -0.66550  -0.66172  -0.66172  -0.64482  -0.64474
 Alpha  occ. eigenvalues --   -0.63275  -0.63275  -0.62985  -0.62977  -0.62858
 Alpha  occ. eigenvalues --   -0.62794  -0.61894  -0.61365  -0.61365  -0.60613
 Alpha  occ. eigenvalues --   -0.60398  -0.60398  -0.60255  -0.60255  -0.58654
 Alpha  occ. eigenvalues --   -0.58621  -0.58601  -0.58601  -0.58468  -0.58374
 Alpha  occ. eigenvalues --   -0.57982  -0.57982  -0.57789  -0.57753  -0.57365
 Alpha  occ. eigenvalues --   -0.57365  -0.56586  -0.56586  -0.56474  -0.56365
 Alpha  occ. eigenvalues --   -0.56282  -0.55951  -0.55872  -0.55862  -0.55862
 Alpha  occ. eigenvalues --   -0.55110  -0.55039  -0.54930  -0.54495  -0.54495
 Alpha  occ. eigenvalues --   -0.53979  -0.53933  -0.53419  -0.53419  -0.52414
 Alpha  occ. eigenvalues --   -0.51221  -0.50531  -0.50531  -0.50465  -0.49147
 Alpha  occ. eigenvalues --   -0.48982  -0.48916  -0.48852  -0.48852  -0.48804
 Alpha  occ. eigenvalues --   -0.48804  -0.48086  -0.48086  -0.47928  -0.47553
 Alpha  occ. eigenvalues --   -0.47504  -0.47174  -0.47103  -0.46866  -0.46402
 Alpha  occ. eigenvalues --   -0.46402  -0.45857  -0.45857  -0.45784  -0.45738
 Alpha  occ. eigenvalues --   -0.44653  -0.44653  -0.43367  -0.43367  -0.43162
 Alpha  occ. eigenvalues --   -0.43007  -0.42659  -0.42659  -0.40671  -0.40578
 Alpha  occ. eigenvalues --   -0.40163  -0.40163  -0.39462  -0.39462  -0.39246
 Alpha  occ. eigenvalues --   -0.38465  -0.38296  -0.37742  -0.37355  -0.36927
 Alpha  occ. eigenvalues --   -0.36799  -0.36752  -0.36752  -0.36617  -0.36617
 Alpha  occ. eigenvalues --   -0.35336  -0.35130  -0.35130  -0.35120  -0.34592
 Alpha  occ. eigenvalues --   -0.34265  -0.34265  -0.33657  -0.33522  -0.24371
 Alpha  occ. eigenvalues --   -0.23128
 Alpha virt. eigenvalues --   -0.06418  -0.06418  -0.05256  -0.05256   0.02398
 Alpha virt. eigenvalues --    0.03218   0.03747   0.03751   0.04097   0.04097
 Alpha virt. eigenvalues --    0.05104   0.06094   0.06121   0.06121   0.09375

 Mulliken charges:
               1
     1  C   -0.088412
     2  C   -0.088412
     3  C   -0.225255
     4  C    0.064040
     5  C    0.064040
     6  C   -0.225255
     7  C    0.508512
     8  C    0.508512
     9  N   -0.687305
    10  N   -0.560217
    11  N   -0.560217
    12  H    0.119503
    13  H    0.119503
    14  H    0.136848
    15  H    0.136848
    16  C   -0.085943
    17  C   -0.085943
    18  C   -0.212465
    19  C    0.085391
    20  C    0.085391
    21  C   -0.212465
    22  C    0.342306
    23  C    0.342306
    24  N   -0.225407
    25  N   -0.560217
    26  H    0.123934
    27  H    0.123934
    28  H    0.143070
    29  H    0.143070
    30  C   -0.085943
    31  C   -0.085943
    32  C   -0.212465
    33  C    0.085391
    34  C    0.085391
    35  C   -0.212465
    36  C    0.342306
    37  C    0.342306
    38  N   -0.225407
    39  N   -0.560217
    40  H    0.123934
    41  H    0.123934
    42  H    0.143070
    43  H    0.143070
    44  C   -0.088412
    45  C   -0.088412
    46  C   -0.225255
    47  C    0.064040
    48  C    0.064040
    49  C   -0.225255
    50  C    0.508512
    51  C    0.508512
    52  N   -0.687305
    53  H    0.119503
    54  H    0.119503
    55  H    0.136848
    56  H    0.136848
    57  H    0.210090
    58  H    0.210090
    59  C   -0.088412
    60  C   -0.088412
    61  C   -0.225255
    62  C    0.064040
    63  C    0.064040
    64  C   -0.225255
    65  C    0.508512
    66  C    0.508512
    67  N   -0.687305
    68  N   -0.560217
    69  N   -0.560217
    70  H    0.119503
    71  H    0.119503
    72  H    0.136848
    73  H    0.136848
    74  C   -0.085943
    75  C   -0.085943
    76  C   -0.212465
    77  C    0.085391
    78  C    0.085391
    79  C   -0.212465
    80  C    0.342306
    81  C    0.342306
    82  N   -0.225407
    83  N   -0.560217
    84  H    0.123934
    85  H    0.123934
    86  H    0.143070
    87  H    0.143070
    88  C   -0.085943
    89  C   -0.085943
    90  C   -0.212465
    91  C    0.085391
    92  C    0.085391
    93  C   -0.212465
    94  C    0.342306
    95  C    0.342306
    96  N   -0.225407
    97  N   -0.560217
    98  H    0.123934
    99  H    0.123934
   100  H    0.143070
   101  H    0.143070
   102  C   -0.088412
   103  C   -0.088412
   104  C   -0.225255
   105  C    0.064040
   106  C    0.064040
   107  C   -0.225255
   108  C    0.508512
   109  C    0.508512
   110  N   -0.687305
   111  H    0.119503
   112  H    0.119503
   113  H    0.136848
   114  H    0.136848
   115  H    0.210090
   116  H    0.210090
 Sum of Mulliken charges =   0.00000

 Dipole moment (field-independent basis, Debye):
    X=              0.0000    Y=              0.0000    Z=             -0.0000  Tot=              0.0000
 Quadrupole moment (field-independent basis, Debye-Ang):
   XX=           -391.9790   YY=           -391.9790   ZZ=           -480.5007
   XY=             -0.0000   XZ=             -0.0000   YZ=             -0.0000

 Normal termination of Gaussian 09 at Thu May 15 17:56:32 2025.
