 Gaussian 09, Revision E.01,

 ----------------------------------------------------------
 #p lc-blyp/def2svp iop(3/107=0400000000, 3/108=0400000000)
 ----------------------------------------------------------

 -----------------------------------
 H2Pc dimer, monomer geom b3pw/631dp
 -----------------------------------
 Symbolic Z-matrix:
 Charge =  0 Multiplicity = 1

 SCF Done:  E(RLC-B+HF-LYP) =  -3325.15984119     A.U. after   16 cycles
 Normal termination of Gaussian 09 at Thu May 15 17:02:44 2025.
 Gaussian 09:  ES64L-G09RevE.01 30-Nov-2015

 ----------------------------------------------------------------------
 #p td(nstates=8) lc-blyp/gen iop(3/107=0400000000, 3/108=0400000000) g
 eom=check guess=read
 ----------------------------------------------------------------------

 -----------------------------------------------------------------
 H2Pc dimer lc-blyp(mu=0.4)/def2-tzvp(-f), monomer geom b3pw/631dp
 -----------------------------------------------------------------
 Structure from the checkpoint file:  "H2Pc_2H_40.chk"
 Charge =  0 Multiplicity = 1

                         Standard orientation:
 ---------------------------------------------------------------------
 Center     Atomic      Atomic             Coordinates (Angstroms)
 Number     Number       Type             X           Y           Z
 ---------------------------------------------------------------------
      1          6           0       -0.701674    6.542878    2.000000
      2          6           0        0.701674    6.542878    2.000000
      3          6           0       -1.423490    5.349643    2.000000
      4          6           0       -0.700602    4.161429    2.000000
      5          6           0        0.700602    4.161429    2.000000
      6          6           0        1.423490    5.349643    2.000000
      7          6           0       -1.093433    2.751318    2.000000
      8          6           0        1.093433    2.751318    2.000000
      9          7           0        0.000000    1.939706    2.000000
     10          7           0        2.377060    2.391962    2.000000
     11          7           0       -2.377060    2.391962    2.000000
     12          1           0       -1.232091    7.491036    2.000000
     13          1           0        1.232091    7.491036    2.000000
     14          1           0       -2.508839    5.340465    2.000000
     15          1           0        2.508839    5.340465    2.000000
     16          6           0       -6.550134   -0.703892    2.000000
     17          6           0       -6.550134    0.703892    2.000000
     18          6           0       -5.362507   -1.424671    2.000000
     19          6           0       -4.167102   -0.705223    2.000000
     20          6           0       -4.167102    0.705223    2.000000
     21          6           0       -5.362507    1.424671    2.000000
     22          6           0       -2.784286   -1.141499    2.000000
     23          6           0       -2.784286    1.141499    2.000000
     24          7           0       -2.021288    0.000000    2.000000
     25          7           0       -2.377060   -2.391962    2.000000
     26          1           0       -7.498621   -1.233211    2.000000
     27          1           0       -7.498621    1.233211    2.000000
     28          1           0       -5.351954   -2.509691    2.000000
     29          1           0       -5.351954    2.509691    2.000000
     30          6           0        6.550134    0.703892    2.000000
     31          6           0        6.550134   -0.703892    2.000000
     32          6           0        5.362507    1.424671    2.000000
     33          6           0        4.167102    0.705223    2.000000
     34          6           0        4.167102   -0.705223    2.000000
     35          6           0        5.362507   -1.424671    2.000000
     36          6           0        2.784286    1.141499    2.000000
     37          6           0        2.784286   -1.141499    2.000000
     38          7           0        2.021288   -0.000000    2.000000
     39          7           0        2.377060   -2.391962    2.000000
     40          1           0        7.498621    1.233211    2.000000
     41          1           0        7.498621   -1.233211    2.000000
     42          1           0        5.351954    2.509691    2.000000
     43          1           0        5.351954   -2.509691    2.000000
     44          6           0        0.701674   -6.542878    2.000000
     45          6           0       -0.701674   -6.542878    2.000000
     46          6           0        1.423490   -5.349643    2.000000
     47          6           0        0.700602   -4.161429    2.000000
     48          6           0       -0.700602   -4.161429    2.000000
     49          6           0       -1.423490   -5.349643    2.000000
     50          6           0        1.093433   -2.751318    2.000000
     51          6           0       -1.093433   -2.751318    2.000000
     52          7           0       -0.000000   -1.939706    2.000000
     53          1           0        1.232091   -7.491036    2.000000
     54          1           0       -1.232091   -7.491036    2.000000
     55          1           0        2.508839   -5.340465    2.000000
     56          1           0       -2.508839   -5.340465    2.000000
     57          1           0       -1.006983    0.000000    2.000000
     58          1           0        1.006983   -0.000000    2.000000
     59          6           0       -0.701674    6.542878   -2.000000
     60          6           0        0.701674    6.542878   -2.000000
     61          6           0       -1.423490    5.349643   -2.000000
     62          6           0       -0.700602    4.161429   -2.000000
     63          6           0        0.700602    4.161429   -2.000000
     64          6           0        1.423490    5.349643   -2.000000
     65          6           0       -1.093433    2.751318   -2.000000
     66          6           0        1.093433    2.751318   -2.000000
     67          7           0        0.000000    1.939706   -2.000000
     68          7           0        2.377060    2.391962   -2.000000
     69          7           0       -2.377060    2.391962   -2.000000
     70          1           0       -1.232091    7.491036   -2.000000
     71          1           0        1.232091    7.491036   -2.000000
     72          1           0       -2.508839    5.340465   -2.000000
     73          1           0        2.508839    5.340465   -2.000000
     74          6           0       -6.550134   -0.703892   -2.000000
     75          6           0       -6.550134    0.703892   -2.000000
     76          6           0       -5.362507   -1.424671   -2.000000
     77          6           0       -4.167102   -0.705223   -2.000000
     78          6           0       -4.167102    0.705223   -2.000000
     79          6           0       -5.362507    1.424671   -2.000000
     80          6           0       -2.784286   -1.141499   -2.000000
     81          6           0       -2.784286    1.141499   -2.000000
     82          7           0       -2.021288    0.000000   -2.000000
     83          7           0       -2.377060   -2.391962   -2.000000
     84          1           0       -7.498621   -1.233211   -2.000000
     85          1           0       -7.498621    1.233211   -2.000000
     86          1           0       -5.351954   -2.509691   -2.000000
     87          1           0       -5.351954    2.509691   -2.000000
     88          6           0        6.550134    0.703892   -2.000000
     89          6           0        6.550134   -0.703892   -2.000000
     90          6           0        5.362507    1.424671   -2.000000
     91          6           0        4.167102    0.705223   -2.000000
     92          6           0        4.167102   -0.705223   -2.000000
     93          6           0        5.362507   -1.424671   -2.000000
     94          6           0        2.784286    1.141499   -2.000000
     95          6           0        2.784286   -1.141499   -2.000000
     96          7           0        2.021288    0.000000   -2.000000
     97          7           0        2.377060   -2.391962   -2.000000
     98          1           0        7.498621    1.233211   -2.000000
     99          1           0        7.498621   -1.233211   -2.000000
    100          1           0        5.351954    2.509691   -2.000000
    101          1           0        5.351954   -2.509691   -2.000000
    102          6           0        0.701674   -6.542878   -2.000000
    103          6           0       -0.701674   -6.542878   -2.000000
    104          6           0        1.423490   -5.349643   -2.000000
    105          6           0        0.700602   -4.161429   -2.000000
    106          6           0       -0.700602   -4.161429   -2.000000
    107          6           0       -1.423490   -5.349643   -2.000000
    108          6           0        1.093433   -2.751318   -2.000000
    109          6           0       -1.093433   -2.751318   -2.000000
    110          7           0       -0.000000   -1.939706   -2.000000
    111          1           0        1.232091   -7.491036   -2.000000
    112          1           0       -1.232091   -7.491036   -2.000000
    113          1           0        2.508839   -5.340465   -2.000000
    114          1           0       -2.508839   -5.340465   -2.000000
    115          1           0       -1.006983    0.000000   -2.000000
    116          1           0        1.006983    0.000000   -2.000000
 ---------------------------------------------------------------------

 SCF Done:  E(RLC-B+HF-LYP) =  -3328.65308907     A.U. after   13 cycles

 Excitation energies and oscillator strengths:

 Excited State   1:      Singlet-B2G    1.4401 eV  860.92 nm  f=0.0000  <S**2>=0.000
     261 -> 269       -0.10333
     264 -> 267        0.11361
     265 -> 270       -0.31858
     266 -> 268        0.61513
 This state for optimization and/or second-order correction.
 Total Energy, E(TD-HF/TD-KS) =  -3328.60016488
 Copying the excited state density for this state as the 1-particle RhoCI density.

 Excited State   2:      Singlet-B3G    1.5412 eV  804.49 nm  f=0.0000  <S**2>=0.000
     265 -> 269       -0.29144
     266 -> 267        0.63337

 Excited State   3:      Singlet-B3U    1.8068 eV  686.23 nm  f=0.6603  <S**2>=0.000
     261 -> 267       -0.16391
     264 -> 269        0.15139
     265 -> 268       -0.46308
     266 -> 270        0.47718

 Excited State   4:      Singlet-B2U    1.9366 eV  640.23 nm  f=0.7478  <S**2>=0.000
     261 -> 268        0.12868
     264 -> 270       -0.11633
     265 -> 267       -0.47362
     266 -> 269        0.48495

 Excited State   5:      Singlet-B2U    2.4391 eV  508.32 nm  f=0.0001  <S**2>=0.000
     265 -> 267        0.50498
     266 -> 269        0.49431

 Excited State   6:      Singlet-B3U    2.4740 eV  501.15 nm  f=0.0002  <S**2>=0.000
     265 -> 268        0.50605
     266 -> 270        0.49314

 Excited State   7:      Singlet-B3G    2.5530 eV  485.65 nm  f=0.0000  <S**2>=0.000
     265 -> 269        0.63111
     266 -> 267        0.30691

 Excited State   8:      Singlet-B2G    2.5659 eV  483.20 nm  f=0.0000  <S**2>=0.000
     265 -> 270        0.61034
     266 -> 268        0.34164

 The electronic state is 1-AG.
 Alpha  occ. eigenvalues --  -14.26146 -14.26146 -14.26145 -14.26145 -14.21502
 Alpha  occ. eigenvalues --  -14.21502 -14.21502 -14.21501 -14.21501 -14.21501
 Alpha  occ. eigenvalues --  -14.21501 -14.21501 -14.20088 -14.20088 -14.20088
 Alpha  occ. eigenvalues --  -14.20088 -10.20092 -10.20092 -10.20092 -10.20091
 Alpha  occ. eigenvalues --  -10.20086 -10.20085 -10.20085 -10.20085 -10.18355
 Alpha  occ. eigenvalues --  -10.18354 -10.18354 -10.18354 -10.18349 -10.18348
 Alpha  occ. eigenvalues --  -10.18348 -10.18348 -10.12889 -10.12888 -10.12887
 Alpha  occ. eigenvalues --  -10.12887 -10.12853 -10.12853 -10.12853 -10.12853
 Alpha  occ. eigenvalues --  -10.12443 -10.12442 -10.12442 -10.12441 -10.12439
 Alpha  occ. eigenvalues --  -10.12439 -10.12437 -10.12437 -10.12279 -10.12279
 Alpha  occ. eigenvalues --  -10.12277 -10.12277 -10.12240 -10.12240 -10.12239
 Alpha  occ. eigenvalues --  -10.12239 -10.11430 -10.11430 -10.11429 -10.11429
 Alpha  occ. eigenvalues --  -10.11427 -10.11427 -10.11425 -10.11425 -10.11303
 Alpha  occ. eigenvalues --  -10.11303 -10.11302 -10.11302 -10.11274 -10.11274
 Alpha  occ. eigenvalues --  -10.11272 -10.11272 -10.11264 -10.11264 -10.11264
 Alpha  occ. eigenvalues --  -10.11264 -10.11234 -10.11234 -10.11233 -10.11233
 Alpha  occ. eigenvalues --   -1.16950  -1.16850  -1.16373  -1.16279  -1.13355
 Alpha  occ. eigenvalues --   -1.13252  -1.11364  -1.11269  -1.09214  -1.09130
 Alpha  occ. eigenvalues --   -1.05282  -1.05212  -1.04691  -1.04611  -1.01691
 Alpha  occ. eigenvalues --   -1.01608  -1.01445  -1.01409  -1.01301  -1.01252
 Alpha  occ. eigenvalues --   -0.99684  -0.99624  -0.99529  -0.99477  -0.92195
 Alpha  occ. eigenvalues --   -0.92191  -0.92174  -0.92070  -0.92057  -0.92046
 Alpha  occ. eigenvalues --   -0.90837  -0.90696  -0.89669  -0.89659  -0.89523
 Alpha  occ. eigenvalues --   -0.89510  -0.89503  -0.89372  -0.89354  -0.89225
 Alpha  occ. eigenvalues --   -0.86202  -0.86095  -0.83958  -0.83877  -0.83068
 Alpha  occ. eigenvalues --   -0.82982  -0.79967  -0.79863  -0.79182  -0.79084
 Alpha  occ. eigenvalues --   -0.77299  -0.77233  -0.76160  -0.76071  -0.76060
 Alpha  occ. eigenvalues --   -0.75964  -0.75422  -0.75321  -0.73896  -0.73799
 Alpha  occ. eigenvalues --   -0.73718  -0.73651  -0.72675  -0.72569  -0.71584
 Alpha  occ. eigenvalues --   -0.71492  -0.70843  -0.70731  -0.69923  -0.69827
 Alpha  occ. eigenvalues --   -0.69523  -0.69476  -0.66723  -0.66616  -0.66506
 Alpha  occ. eigenvalues --   -0.66398  -0.66200  -0.66149  -0.64645  -0.64526
 Alpha  occ. eigenvalues --   -0.63387  -0.63301  -0.63056  -0.62997  -0.62832
 Alpha  occ. eigenvalues --   -0.62773  -0.61981  -0.61482  -0.61392  -0.60952
 Alpha  occ. eigenvalues --   -0.60594  -0.60249  -0.60155  -0.59613  -0.58826
 Alpha  occ. eigenvalues --   -0.58565  -0.58488  -0.58484  -0.58448  -0.58415
 Alpha  occ. eigenvalues --   -0.58349  -0.57891  -0.57844  -0.57508  -0.57463
 Alpha  occ. eigenvalues --   -0.57402  -0.56759  -0.56640  -0.56551  -0.56430
 Alpha  occ. eigenvalues --   -0.56324  -0.55955  -0.55867  -0.55824  -0.55709
 Alpha  occ. eigenvalues --   -0.55042  -0.54947  -0.54828  -0.54440  -0.54363
 Alpha  occ. eigenvalues --   -0.53989  -0.53908  -0.53516  -0.53444  -0.52429
 Alpha  occ. eigenvalues --   -0.51230  -0.50920  -0.50630  -0.50103  -0.49234
 Alpha  occ. eigenvalues --   -0.49085  -0.49021  -0.49006  -0.48945  -0.48921
 Alpha  occ. eigenvalues --   -0.48461  -0.48200  -0.48039  -0.47960  -0.47466
 Alpha  occ. eigenvalues --   -0.47400  -0.47264  -0.47182  -0.46671  -0.46520
 Alpha  occ. eigenvalues --   -0.46450  -0.45769  -0.45717  -0.45688  -0.45633
 Alpha  occ. eigenvalues --   -0.44858  -0.44362  -0.43742  -0.43173  -0.43056
 Alpha  occ. eigenvalues --   -0.43014  -0.42708  -0.42546  -0.40659  -0.40482
 Alpha  occ. eigenvalues --   -0.40240  -0.40083  -0.39519  -0.39359  -0.39319
 Alpha  occ. eigenvalues --   -0.38469  -0.38300  -0.37784  -0.37692  -0.37266
 Alpha  occ. eigenvalues --   -0.37090  -0.36852  -0.36453  -0.36311  -0.35839
 Alpha  occ. eigenvalues --   -0.35576  -0.35385  -0.35256  -0.35028  -0.34769
 Alpha  occ. eigenvalues --   -0.34342  -0.33997  -0.33652  -0.33223  -0.24378
 Alpha  occ. eigenvalues --   -0.23130
 Alpha virt. eigenvalues --   -0.06487  -0.06354  -0.05329  -0.05211   0.02389
 Alpha virt. eigenvalues --    0.02911   0.03683   0.03751   0.04332   0.04610
 Alpha virt. eigenvalues --    0.04619   0.05609   0.06316   0.06540   0.09227

 Mulliken charges:
               1
     1  C   -0.086845
     2  C   -0.086845
     3  C   -0.222225
     4  C    0.073983
     5  C    0.073983
     6  C   -0.222225
     7  C    0.500256
     8  C    0.500256
     9  N   -0.687319
    10  N   -0.558421
    11  N   -0.558421
    12  H    0.118858
    13  H    0.118858
    14  H    0.135350
    15  H    0.135350
    16  C   -0.087303
    17  C   -0.087303
    18  C   -0.212821
    19  C    0.092158
    20  C    0.092158
    21  C   -0.212821
    22  C    0.331639
    23  C    0.331639
    24  N   -0.231265
    25  N   -0.558421
    26  H    0.124443
    27  H    0.124443
    28  H    0.144231
    29  H    0.144231
    30  C   -0.087303
    31  C   -0.087303
    32  C   -0.212821
    33  C    0.092158
    34  C    0.092158
    35  C   -0.212821
    36  C    0.331639
    37  C    0.331639
    38  N   -0.231265
    39  N   -0.558421
    40  H    0.124443
    41  H    0.124443
    42  H    0.144231
    43  H    0.144231
    44  C   -0.086845
    45  C   -0.086845
    46  C   -0.222225
    47  C    0.073983
    48  C    0.073983
    49  C   -0.222225
    50  C    0.500256
    51  C    0.500256
    52  N   -0.687319
    53  H    0.118858
    54  H    0.118858
    55  H    0.135350
    56  H    0.135350
    57  H    0.211979
    58  H    0.211979
    59  C   -0.086845
    60  C   -0.086845
    61  C   -0.222225
    62  C    0.073983
    63  C    0.073983
    64  C   -0.222225
    65  C    0.500256
    66  C    0.500256
    67  N   -0.687319
    68  N   -0.558421
    69  N   -0.558421
    70  H    0.118858
    71  H    0.118858
    72  H    0.135350
    73  H    0.135350
    74  C   -0.087303
    75  C   -0.087303
    76  C   -0.212821
    77  C    0.092158
    78  C    0.092158
    79  C   -0.212821
    80  C    0.331639
    81  C    0.331639
    82  N   -0.231265
    83  N   -0.558421
    84  H    0.124443
    85  H    0.124443
    86  H    0.144231
    87  H    0.144231
    88  C   -0.087303
    89  C   -0.087303
    90  C   -0.212821
    91  C    0.092158
    92  C    0.092158
    93  C   -0.212821
    94  C    0.331639
    95  C    0.331639
    96  N   -0.231265
    97  N   -0.558421
    98  H    0.124443
    99  H    0.124443
   100  H    0.144231
   101  H    0.144231
   102  C   -0.086845
   103  C   -0.086845
   104  C   -0.222225
   105  C    0.073983
   106  C    0.073983
   107  C   -0.222225
   108  C    0.500256
   109  C    0.500256
   110  N   -0.687319
   111  H    0.118858
   112  H    0.118858
   113  H    0.135350
   114  H    0.135350
   115  H    0.211979
   116  H    0.211979
 Sum of Mulliken charges =  -0.00000

 Dipole moment (field-independent basis, Debye):
    X=             -0.0000    Y=              0.0000    Z=              0.0000  Tot=              0.0000
 Quadrupole moment (field-independent basis, Debye-Ang):
   XX=           -377.2434   YY=           -406.8256   ZZ=           -480.5287
   XY=              0.0000   XZ=             -0.0000   YZ=             -0.0000

 Normal termination of Gaussian 09 at Thu May 15 19:11:11 2025.
