 Gaussian 09, Revision E.01,

 ----------------------------------------------------------------------
 #p lc-blyp/def2svp geom=check guess=read iop(3/107=0400000000, 3/108=0
 400000000)
 ----------------------------------------------------------------------

 ---------------
 geom b3pw/631gd
 ---------------
 Structure from the checkpoint file:  "ZnPc-Im1.chk"
 Charge =  0 Multiplicity = 1

 SCF Done:  E(RLC-B+HF-LYP) =  -7407.70684302     A.U. after   16 cycles
 Normal termination of Gaussian 09 at Tue May 20 15:45:05 2025.
 Gaussian 09:  ES64L-G09RevE.01 30-Nov-2015

 ----------------------------------------------------------------------
 #p td(nstates=8) lc-blyp/gen geom=check guess=read iop(3/107=040000000
 0, 3/108=0400000000)
 ----------------------------------------------------------------------

 ---------------
 geom b3pw/631gd
 ---------------
 Structure from the checkpoint file:  "ZnPc-Im1.chk"
 Charge =  0 Multiplicity = 1

                         Standard orientation:
 ---------------------------------------------------------------------
 Center     Atomic      Atomic             Coordinates (Angstroms)
 Number     Number       Type             X           Y           Z
 ---------------------------------------------------------------------
      1          6           0        5.115037   -6.434836    1.341852
      2          6           0        6.474162   -6.199949    1.072706
      3          6           0        4.192586   -5.391336    1.357068
      4          6           0        4.661626   -4.107648    1.088897
      5          6           0        6.021269   -3.872866    0.819593
      6          6           0        6.944807   -4.915306    0.811656
      7          6           0        4.004669   -2.804491    1.031535
      8          6           0        6.150476   -2.434374    0.601829
      9          7           0        4.928382   -1.845769    0.726250
     10          7           0        7.316950   -1.845056    0.353423
     11          7           0        2.713151   -2.634908    1.284340
     12          1           0        4.781498   -7.449688    1.543885
     13          1           0        7.167814   -7.037069    1.071700
     14          1           0        3.141568   -5.563865    1.569796
     15          1           0        7.994379   -4.723347    0.608737
     16          6           0       -1.777280   -0.253498    2.346665
     17          6           0       -1.547150   -1.647071    2.322368
     18          6           0       -0.743731    0.644905    2.062731
     19          6           0        0.502948    0.122124    1.736702
     20          6           0        0.729479   -1.266299    1.719949
     21          6           0       -0.293079   -2.164298    2.018106
     22          6           0        1.758095    0.748815    1.340690
     23          6           0        2.124735   -1.444754    1.334631
     24          7           0        2.681865   -0.222377    1.094499
     25          7           0        1.915438    2.066158    1.272750
     26          1           0       -2.372526   -2.318373    2.542589
     27          1           0       -0.912209    1.718065    2.064452
     28          1           0       -0.115197   -3.234934    1.997450
     29          6           0       11.102157    0.517039   -0.183012
     30          6           0       10.854603    1.899094   -0.241332
     31          6           0       10.060928   -0.395618   -0.030951
     32          6           0        8.765341    0.108513    0.052560
     33          6           0        8.517916    1.490739   -0.005807
     34          6           0        9.559657    2.403671   -0.148766
     35          6           0        7.462911   -0.532151    0.221399
     36          6           0        7.072728    1.653485    0.132547
     37          7           0        6.488570    0.424886    0.242955
     38          7           0        6.485535    2.842293    0.187420
     39          1           0       12.125587    0.157457   -0.255004
     40          1           0       11.691021    2.583768   -0.357569
     41          1           0       10.243530   -1.464876    0.022975
     42          1           0        9.359453    3.470452   -0.185490
     43          6           0        4.243020    6.678826    0.831137
     44          6           0        2.895348    6.451546    1.158630
     45          6           0        5.109141    5.619866    0.570373
     46          6           0        4.591609    4.328512    0.636358
     47          6           0        3.243989    4.100768    0.964882
     48          6           0        2.380023    5.159732    1.233970
     49          6           0        5.192044    3.011866    0.439573
     50          6           0        3.061454    2.651920    0.954837
     51          7           0        4.240451    2.051181    0.613937
     52          1           0        4.612984    7.699980    0.783534
     53          1           0        2.246881    7.301106    1.357947
     54          1           0        6.153477    5.785627    0.322589
     55          1           0        1.341000    4.975074    1.490897
     56         30           0        4.468026    0.076365    0.148249
     57          6           0       -3.119986    0.253315    2.694284
     58          6           0       -4.754506    1.145071    3.890176
     59          6           0       -5.221047    0.801244    2.655660
     60          1           0       -5.235952    1.597230    4.744330
     61          1           0       -6.213608    0.920113    2.247442
     62          7           0       -4.201401    0.248508    1.917585
     63          7           0       -3.423672    0.795221    3.906398
     64          6           0       -2.530535    0.958781    5.039449
     65          1           0       -2.952854    0.466759    5.920133
     66          1           0       -1.568419    0.504906    4.801730
     67          1           0       -2.380606    2.020865    5.254846
     68          6           0        1.777180    0.255298   -2.346497
     69          6           0        1.546506    1.648775   -2.322405
     70          6           0        0.744027   -0.643469   -2.062256
     71          6           0        0.292272    2.165559   -2.018027
     72          1           0        2.371578    2.320379   -2.542850
     73          6           0       -0.502837   -0.121135   -1.736199
     74          1           0        0.912933   -1.716559   -2.063905
     75          6           0       -0.729900    1.267205   -1.719629
     76          1           0        0.113965    3.236128   -1.997515
     77          6           0       -1.757777   -0.748247   -1.340177
     78          6           0       -2.125237    1.445178   -1.334369
     79          7           0       -2.681926    0.222617   -1.094145
     80          7           0       -1.914671   -2.065642   -1.272182
     81          7           0       -2.714097    2.635117   -1.284265
     82         30           0       -4.468071   -0.076669   -0.147884
     83          6           0       -3.060509   -2.651778   -0.954330
     84          6           0       -4.005705    2.804245   -1.031600
     85          7           0       -4.929085    1.845210   -0.726282
     86          7           0       -6.488488   -0.425962   -0.242906
     87          7           0       -4.239740   -2.051448   -0.613507
     88          6           0       -3.242531   -4.100692   -0.964366
     89          6           0       -4.663145    4.107144   -1.089199
     90          6           0       -6.151416    2.433374   -0.602070
     91          6           0       -7.463190    0.530719   -0.221523
     92          6           0       -7.072199   -1.654759   -0.132403
     93          6           0       -5.191001   -3.012474   -0.439195
     94          6           0       -4.590085   -4.328912   -0.635914
     95          6           0       -2.378165   -5.159344   -1.233391
     96          6           0       -4.194565    5.390976   -1.357489
     97          6           0       -6.022730    3.871882   -0.820014
     98          7           0       -7.317699    1.843658   -0.353702
     99          6           0       -8.765396   -0.110410   -0.052714
    100          6           0       -8.517458   -1.492537    0.005826
    101          7           0       -6.484570   -2.843361   -0.187135
    102          6           0       -5.107158   -5.620450   -0.569939
    103          6           0       -2.893031   -6.451342   -1.158058
    104          1           0       -1.339195   -4.974311   -1.490261
    105          6           0       -5.117414    6.434127   -1.342515
    106          1           0       -3.143591    5.563877   -1.570134
    107          6           0       -6.946665    4.913974   -0.812315
    108          6           0      -10.061184    0.393234    0.030630
    109          6           0       -9.558862   -2.405851    0.148801
    110          6           0       -4.240639   -6.679102   -0.830639
    111          1           0       -6.151449   -5.786585   -0.322214
    112          1           0       -2.244247   -7.300672   -1.357324
    113          6           0       -6.476480    6.198760   -1.073484
    114          1           0       -4.784239    7.449079   -1.544649
    115          1           0       -7.996187    4.721643   -0.609488
    116          6           0      -11.102077   -0.519802    0.182708
    117          1           0      -10.244193    1.462417   -0.023434
    118          6           0      -10.854006   -1.901758    0.241205
    119          1           0       -9.358250   -3.472551    0.185659
    120          1           0       -4.610237   -7.700387   -0.783040
    121          1           0       -7.170449    7.035617   -1.072665
    122          1           0      -12.125650   -0.160600    0.254574
    123          1           0      -11.690175   -2.586734    0.357452
    124          6           0        3.119958   -0.251192   -2.694463
    125          7           0        4.201091   -0.248196   -1.917384
    126          7           0        3.423820   -0.791251   -3.907366
    127          6           0        5.220730   -0.800211   -2.655999
    128          6           0        4.754467   -1.141779   -3.891248
    129          6           0        2.530970   -0.952530   -5.040964
    130          1           0        6.213090   -0.920215   -2.247630
    131          1           0        5.236008   -1.592749   -4.745977
    132          1           0        2.382434   -2.014167   -5.259477
    133          1           0        1.568265   -0.500605   -4.801930
    134          1           0        2.952650   -0.457369   -5.920204
 ---------------------------------------------------------------------

 SCF Done:  E(RLC-B+HF-LYP) =  -7412.24445689     A.U. after   29 cycles

 Excitation energies and oscillator strengths:

 Excited State   1:      Singlet-A      1.7140 eV  723.38 nm  f=1.0703  <S**2>=0.000
     333 -> 340        0.13253
     334 -> 339        0.13237
     335 -> 338        0.46612
     336 -> 337        0.48284
     336 -> 339        0.10075
 This state for optimization and/or second-order correction.
 Total Energy, E(TD-HF/TD-KS) =  -7412.18147002
 Copying the excited state density for this state as the 1-particle RhoCI density.

 Excited State   2:      Singlet-A      1.7473 eV  709.56 nm  f=0.0000  <S**2>=0.000
     333 -> 339        0.13295
     334 -> 340        0.13348
     335 -> 337        0.45521
     335 -> 339       -0.16897
     336 -> 338        0.44548
     336 -> 340       -0.16932

 Excited State   3:      Singlet-A      1.7919 eV  691.93 nm  f=0.0000  <S**2>=0.000
     333 -> 337       -0.13529
     334 -> 338       -0.13446
     335 -> 337        0.16758
     335 -> 339        0.45528
     336 -> 338        0.16660
     336 -> 340        0.44471

 Excited State   4:      Singlet-A      1.8322 eV  676.68 nm  f=0.7492  <S**2>=0.000
     333 -> 338       -0.14922
     334 -> 337       -0.14869
     335 -> 340        0.46096
     336 -> 337       -0.10194
     336 -> 339        0.47680

 Excited State   5:      Singlet-A      3.1258 eV  396.64 nm  f=0.0000  <S**2>=0.000
     335 -> 337       -0.48616
     336 -> 338        0.49164

 Excited State   6:      Singlet-A      3.1275 eV  396.44 nm  f=0.0030  <S**2>=0.000
     335 -> 338        0.49749
     336 -> 337       -0.48072

 Excited State   7:      Singlet-A      3.3512 eV  369.97 nm  f=0.0000  <S**2>=0.000
     335 -> 339       -0.48491
     336 -> 340        0.49097

 Excited State   8:      Singlet-A      3.3512 eV  369.97 nm  f=0.0016  <S**2>=0.000
     335 -> 340        0.49308
     336 -> 339       -0.48152

 The electronic state is 1-A.
 Alpha  occ. eigenvalues -- -345.95973-345.95972 -41.82842 -41.82841 -36.90769
 Alpha  occ. eigenvalues --  -36.90769 -36.90501 -36.90500 -36.90489 -36.90488
 Alpha  occ. eigenvalues --  -14.29353 -14.29352 -14.23316 -14.23316 -14.20900
 Alpha  occ. eigenvalues --  -14.20899 -14.20807 -14.20807 -14.20799 -14.20799
 Alpha  occ. eigenvalues --  -14.20578 -14.20578 -14.20545 -14.20545 -14.20516
 Alpha  occ. eigenvalues --  -14.20515 -14.20477 -14.20477 -14.20406 -14.20405
 Alpha  occ. eigenvalues --  -10.20018 -10.20018 -10.18291 -10.18291 -10.18284
 Alpha  occ. eigenvalues --  -10.18284 -10.18153 -10.18153 -10.18005 -10.18004
 Alpha  occ. eigenvalues --  -10.17824 -10.17824 -10.17725 -10.17725 -10.17665
 Alpha  occ. eigenvalues --  -10.17664 -10.17660 -10.17659 -10.16965 -10.16964
 Alpha  occ. eigenvalues --  -10.15382 -10.15381 -10.14437 -10.14436 -10.14081
 Alpha  occ. eigenvalues --  -10.14080 -10.12881 -10.12881 -10.12517 -10.12516
 Alpha  occ. eigenvalues --  -10.12207 -10.12207 -10.12077 -10.12076 -10.12030
 Alpha  occ. eigenvalues --  -10.12030 -10.11645 -10.11645 -10.11621 -10.11620
 Alpha  occ. eigenvalues --  -10.11597 -10.11597 -10.11555 -10.11555 -10.11500
 Alpha  occ. eigenvalues --  -10.11500 -10.11497 -10.11497 -10.11496 -10.11496
 Alpha  occ. eigenvalues --  -10.11456 -10.11456 -10.11446 -10.11446 -10.11394
 Alpha  occ. eigenvalues --  -10.11394 -10.11391 -10.11390 -10.11381 -10.11380
 Alpha  occ. eigenvalues --  -10.11356 -10.11356 -10.11314 -10.11314 -10.11308
 Alpha  occ. eigenvalues --  -10.11308 -10.11267 -10.11267 -10.11250 -10.11250
 Alpha  occ. eigenvalues --  -10.11196 -10.11196  -4.77931  -4.77931  -3.21848
 Alpha  occ. eigenvalues --   -3.21847  -3.21451  -3.21451  -3.21420  -3.21419
 Alpha  occ. eigenvalues --   -1.19286  -1.19285  -1.14529  -1.14513  -1.13135
 Alpha  occ. eigenvalues --   -1.13094  -1.12984  -1.12982  -1.10178  -1.10151
 Alpha  occ. eigenvalues --   -1.07886  -1.07881  -1.05687  -1.05686  -1.03751
 Alpha  occ. eigenvalues --   -1.03741  -1.03630  -1.03624  -1.01532  -1.01502
 Alpha  occ. eigenvalues --   -1.00432  -1.00421  -0.99732  -0.99731  -0.99599
 Alpha  occ. eigenvalues --   -0.99598  -0.99246  -0.99245  -0.94292  -0.94152
 Alpha  occ. eigenvalues --   -0.91372  -0.91351  -0.90246  -0.90220  -0.89939
 Alpha  occ. eigenvalues --   -0.89882  -0.89670  -0.89661  -0.89497  -0.89475
 Alpha  occ. eigenvalues --   -0.89446  -0.89419  -0.89257  -0.89255  -0.89203
 Alpha  occ. eigenvalues --   -0.89175  -0.87534  -0.87516  -0.85338  -0.85327
 Alpha  occ. eigenvalues --   -0.82518  -0.82504  -0.82321  -0.82308  -0.78270
 Alpha  occ. eigenvalues --   -0.78192  -0.76779  -0.76723  -0.76644  -0.76637
 Alpha  occ. eigenvalues --   -0.76520  -0.76464  -0.76073  -0.75998  -0.75673
 Alpha  occ. eigenvalues --   -0.75640  -0.75040  -0.75029  -0.73824  -0.73803
 Alpha  occ. eigenvalues --   -0.72487  -0.72481  -0.71939  -0.71880  -0.71602
 Alpha  occ. eigenvalues --   -0.71551  -0.70993  -0.70967  -0.69329  -0.69076
 Alpha  occ. eigenvalues --   -0.68335  -0.68134  -0.67563  -0.67559  -0.66889
 Alpha  occ. eigenvalues --   -0.66793  -0.65858  -0.65850  -0.65643  -0.65637
 Alpha  occ. eigenvalues --   -0.65443  -0.65417  -0.63630  -0.63613  -0.62160
 Alpha  occ. eigenvalues --   -0.62156  -0.61756  -0.61752  -0.61449  -0.61027
 Alpha  occ. eigenvalues --   -0.60625  -0.60460  -0.60399  -0.60370  -0.60175
 Alpha  occ. eigenvalues --   -0.60143  -0.60073  -0.60038  -0.59704  -0.59611
 Alpha  occ. eigenvalues --   -0.59504  -0.59214  -0.59123  -0.59002  -0.58632
 Alpha  occ. eigenvalues --   -0.58625  -0.58607  -0.58597  -0.58129  -0.58071
 Alpha  occ. eigenvalues --   -0.57865  -0.57814  -0.57728  -0.57463  -0.57161
 Alpha  occ. eigenvalues --   -0.56991  -0.56651  -0.56650  -0.56624  -0.56574
 Alpha  occ. eigenvalues --   -0.56510  -0.56463  -0.56323  -0.56197  -0.55920
 Alpha  occ. eigenvalues --   -0.55912  -0.55823  -0.55816  -0.55797  -0.55762
 Alpha  occ. eigenvalues --   -0.55142  -0.54855  -0.54827  -0.54726  -0.54723
 Alpha  occ. eigenvalues --   -0.54559  -0.54420  -0.54359  -0.54324  -0.54207
 Alpha  occ. eigenvalues --   -0.54072  -0.54018  -0.53285  -0.53234  -0.52606
 Alpha  occ. eigenvalues --   -0.52369  -0.50886  -0.50671  -0.49926  -0.49715
 Alpha  occ. eigenvalues --   -0.49553  -0.49189  -0.49099  -0.49026  -0.48957
 Alpha  occ. eigenvalues --   -0.48857  -0.48242  -0.48238  -0.48003  -0.48002
 Alpha  occ. eigenvalues --   -0.47274  -0.47274  -0.47058  -0.47039  -0.46929
 Alpha  occ. eigenvalues --   -0.46734  -0.46342  -0.46322  -0.46101  -0.46084
 Alpha  occ. eigenvalues --   -0.45215  -0.45204  -0.44740  -0.44713  -0.44685
 Alpha  occ. eigenvalues --   -0.44614  -0.44372  -0.44290  -0.42928  -0.42861
 Alpha  occ. eigenvalues --   -0.42712  -0.42575  -0.41986  -0.41973  -0.41334
 Alpha  occ. eigenvalues --   -0.41304  -0.39135  -0.39041  -0.38967  -0.38966
 Alpha  occ. eigenvalues --   -0.38195  -0.38170  -0.37321  -0.37290  -0.37033
 Alpha  occ. eigenvalues --   -0.36581  -0.36331  -0.35908  -0.35667  -0.35637
 Alpha  occ. eigenvalues --   -0.35491  -0.35414  -0.35353  -0.35317  -0.35218
 Alpha  occ. eigenvalues --   -0.35000  -0.34849  -0.34519  -0.34513  -0.34481
 Alpha  occ. eigenvalues --   -0.34325  -0.34228  -0.32826  -0.32805  -0.23088
 Alpha  occ. eigenvalues --   -0.23015
 Alpha virt. eigenvalues --   -0.05165  -0.04968  -0.04810  -0.04670   0.03105
 Alpha virt. eigenvalues --    0.03350   0.03903   0.04184   0.04986   0.05047
 Alpha virt. eigenvalues --    0.05335   0.05340   0.05479   0.05524   0.07521

 Mulliken charges:
               1
     1  C   -0.096215
     2  C   -0.096247
     3  C   -0.201297
     4  C    0.040167
     5  C    0.060922
     6  C   -0.201275
     7  C    0.367500
     8  C    0.379616
     9  N   -0.324675
    10  N   -0.558081
    11  N   -0.557215
    12  H    0.123219
    13  H    0.122960
    14  H    0.143279
    15  H    0.142761
    16  C    0.090413
    17  C   -0.175489
    18  C   -0.326930
    19  C    0.175915
    20  C    0.137198
    21  C   -0.205227
    22  C    0.306643
    23  C    0.354433
    24  N   -0.354506
    25  N   -0.577909
    26  H    0.140551
    27  H    0.150098
    28  H    0.141187
    29  C   -0.094882
    30  C   -0.094355
    31  C   -0.200961
    32  C    0.076431
    33  C    0.064772
    34  C   -0.199470
    35  C    0.336391
    36  C    0.381166
    37  N   -0.332407
    38  N   -0.563585
    39  H    0.124832
    40  H    0.124716
    41  H    0.144452
    42  H    0.144872
    43  C   -0.097067
    44  C   -0.094489
    45  C   -0.196265
    46  C    0.074916
    47  C    0.042538
    48  C   -0.211813
    49  C    0.352772
    50  C    0.405837
    51  N   -0.320970
    52  H    0.123431
    53  H    0.123965
    54  H    0.144000
    55  H    0.145061
    56  Zn   0.145666
    57  C    0.341588
    58  C   -0.030456
    59  C   -0.054771
    60  H    0.161663
    61  H    0.187409
    62  N   -0.330834
    63  N   -0.219821
    64  C   -0.356876
    65  H    0.172532
    66  H    0.200398
    67  H    0.177805
    68  C    0.090193
    69  C   -0.175211
    70  C   -0.326704
    71  C   -0.205206
    72  H    0.140497
    73  C    0.175787
    74  H    0.150091
    75  C    0.137244
    76  H    0.141171
    77  C    0.306745
    78  C    0.354412
    79  N   -0.354617
    80  N   -0.577917
    81  N   -0.557209
    82  Zn   0.145760
    83  C    0.405873
    84  C    0.367483
    85  N   -0.324701
    86  N   -0.332372
    87  N   -0.320994
    88  C    0.042554
    89  C    0.040156
    90  C    0.379554
    91  C    0.336451
    92  C    0.381130
    93  C    0.352774
    94  C    0.074933
    95  C   -0.211841
    96  C   -0.201311
    97  C    0.060944
    98  N   -0.558057
    99  C    0.076373
   100  C    0.064798
   101  N   -0.563593
   102  C   -0.196252
   103  C   -0.094482
   104  H    0.145088
   105  C   -0.096216
   106  H    0.143270
   107  C   -0.201281
   108  C   -0.200962
   109  C   -0.199467
   110  C   -0.097069
   111  H    0.144001
   112  H    0.123970
   113  C   -0.096249
   114  H    0.123217
   115  H    0.142761
   116  C   -0.094879
   117  H    0.144450
   118  C   -0.094355
   119  H    0.144874
   120  H    0.123431
   121  H    0.122959
   122  H    0.124832
   123  H    0.124717
   124  C    0.341085
   125  N   -0.330614
   126  N   -0.219771
   127  C   -0.054773
   128  C   -0.030392
   129  C   -0.356816
   130  H    0.187406
   131  H    0.161648
   132  H    0.177753
   133  H    0.200380
   134  H    0.172556
 Sum of Mulliken charges =  -0.00000

 Dipole moment (field-independent basis, Debye):
    X=              0.0005    Y=              0.0056    Z=             -0.0018  Tot=              0.0059
 Quadrupole moment (field-independent basis, Debye-Ang):
   XX=           -532.2141   YY=           -510.5379   ZZ=           -504.7844
   XY=             -8.3148   XZ=            -52.5482   YZ=             11.8723

 Normal termination of Gaussian 09 at Wed May 21 09:32:50 2025.
