 Gaussian 09, Revision E.01,

 ----------------------------------------------------------------------
 #p lc-blyp/def2svp geom=check guess=read iop(3/107=0400000000, 3/108=0
 400000000)
 ----------------------------------------------------------------------

 ---------------
 geom b3pw/631gd
 ---------------
 Structure from the checkpoint file:  "ZnPc-Im2.chk"
 Charge =  0 Multiplicity = 1

 SCF Done:  E(RLC-B+HF-LYP) =  -7407.70601857     A.U. after   16 cycles
 Normal termination of Gaussian 09 at Tue May 20 15:14:23 2025.
 Gaussian 09:  ES64L-G09RevE.01 30-Nov-2015

 ----------------------------------------------------------------------
 #p td(nstates=8) lc-blyp/gen geom=check guess=read iop(3/107=040000000
 0, 3/108=0400000000)
 ----------------------------------------------------------------------

 ------------------------------
 geom b3pw/631gd, def2-tzvp(-f)
 ------------------------------
 Structure from the checkpoint file:  "ZnPc-Im2.chk"
 Charge =  0 Multiplicity = 1

                         Standard orientation:
 ---------------------------------------------------------------------
 Center     Atomic      Atomic             Coordinates (Angstroms)
 Number     Number       Type             X           Y           Z
 ---------------------------------------------------------------------
      1          6           0        1.752560    0.126878    2.309763
      2          6           0        1.625111    1.527645    2.178966
      3          6           0        0.643626   -0.708656    2.132720
      4          6           0        0.405704    2.112957    1.860066
      5          1           0        2.504156    2.148858    2.324696
      6          6           0       -0.569869   -0.119721    1.795257
      7          1           0        0.731669   -1.788826    2.208563
      8          6           0       -0.688176    1.274897    1.655790
      9          1           0        0.311643    3.188193    1.746446
     10          6           0       -1.878300   -0.677199    1.471972
     11          6           0       -2.060876    1.526594    1.235462
     12          7           0       -2.719027    0.337269    1.119924
     13          7           0       -2.150045   -1.974383    1.557272
     14          7           0       -2.536237    2.748517    1.022485
     15         30           0       -4.502902    0.079310    0.156675
     16          6           0       -3.354777   -2.485534    1.335250
     17          6           0       -3.788568    2.995331    0.662752
     18          7           0       -4.778512    2.089088    0.406166
     19          7           0       -6.549113   -0.070915    0.244386
     20          7           0       -4.480704   -1.823172    0.939328
     21          6           0       -3.668768   -3.898044    1.533888
     22          6           0       -4.322944    4.346897    0.521429
     23          6           0       -5.936067    2.761854    0.146427
     24          6           0       -7.419469    0.956768    0.018994
     25          6           0       -7.255760   -1.236611    0.340351
     26          6           0       -5.518073   -2.705500    0.891673
     27          6           0       -5.039922   -4.036459    1.256312
     28          6           0       -2.900494   -4.991721    1.925619
     29          6           0       -3.750157    5.608285    0.665695
     30          6           0       -5.681375    4.199098    0.192393
     31          7           0       -7.145041    2.252506   -0.063174
     32          6           0       -8.777620    0.427715   -0.075041
     33          6           0       -8.674443   -0.959094    0.129855
     34          7           0       -6.790636   -2.451432    0.603736
     35          6           0       -5.676404   -5.270365    1.365526
     36          6           0       -3.535262   -6.227477    2.026654
     37          1           0       -1.842203   -4.876479    2.141022
     38          6           0       -4.567224    6.717776    0.462740
     39          1           0       -2.701481    5.713734    0.928079
     40          6           0       -6.500764    5.308672   -0.000643
     41          6           0      -10.012747    1.033614   -0.292305
     42          6           0       -9.803649   -1.774671    0.121605
     43          6           0       -4.906315   -6.365053    1.750831
     44          1           0       -6.737683   -5.366192    1.155489
     45          1           0       -2.963356   -7.102457    2.325604
     46          6           0       -5.925496    6.569876    0.133611
     47          1           0       -4.150883    7.717057    0.562813
     48          1           0       -7.551087    5.184923   -0.247554
     49          6           0      -11.140764    0.216885   -0.308904
     50          1           0      -10.083747    2.106903   -0.442261
     51          6           0      -11.037549   -1.169811   -0.104546
     52          1           0       -9.715105   -2.844255    0.288096
     53          1           0       -5.370968   -7.343634    1.842521
     54          1           0       -6.535450    7.457352   -0.015334
     55          1           0      -12.120091    0.656871   -0.479790
     56          1           0      -11.938921   -1.777391   -0.120933
     57          6           0        3.070342   -0.445216    2.635452
     58          7           0        4.174669   -0.373691    1.891726
     59          7           0        3.333528   -1.115521    3.792430
     60          6           0        5.165408   -1.014546    2.596911
     61          6           0        4.660139   -1.479954    3.774929
     62          6           0        2.416239   -1.371577    4.889016
     63          1           0        6.168525   -1.100423    2.207721
     64          1           0        5.112870   -2.023895    4.590360
     65          1           0        2.888606   -1.088906    5.833553
     66          1           0        1.513676   -0.776875    4.747668
     67          1           0        2.143611   -2.430804    4.923881
     68          6           0       -1.752587    0.127101   -2.309713
     69          6           0       -1.625122    1.527852   -2.178850
     70          6           0       -0.643646   -0.708443   -2.132709
     71          6           0       -0.405703    2.113144   -1.859933
     72          1           0       -2.504159    2.149085   -2.324549
     73          6           0        0.569842   -0.119534   -1.795216
     74          1           0       -0.731682   -1.788611   -2.208599
     75          6           0        0.688173    1.275075   -1.655684
     76          1           0       -0.311649    3.188377   -1.746274
     77          6           0        1.878259   -0.677058   -1.471952
     78          6           0        2.060880    1.526708   -1.235317
     79          7           0        2.719010    0.337366   -1.119838
     80          7           0        2.149924   -1.974255   -1.557309
     81          7           0        2.536283    2.748606   -1.022292
     82         30           0        4.502861    0.079221   -0.156367
     83          6           0        3.354625   -2.485482   -1.335285
     84          6           0        3.788649    2.995345   -0.662613
     85          7           0        4.778544    2.089051   -0.406032
     86          7           0        6.549070   -0.071038   -0.244370
     87          7           0        4.480567   -1.823187   -0.939325
     88          6           0        3.668543   -3.898004   -1.533955
     89          6           0        4.323117    4.346887   -0.521412
     90          6           0        5.936168    2.761765   -0.146450
     91          6           0        7.419495    0.956613   -0.019094
     92          6           0        7.255662   -1.236765   -0.340391
     93          6           0        5.517895   -2.705566   -0.891676
     94          6           0        5.039685   -4.036495   -1.256353
     95          6           0        2.900223   -4.991633   -1.925729
     96          6           0        3.750399    5.608300   -0.665729
     97          6           0        5.681567    4.199024   -0.192487
     98          7           0        7.145134    2.252365    0.063068
     99          6           0        8.777630    0.427505    0.074821
    100          6           0        8.674373   -0.959306   -0.130026
    101          7           0        6.790470   -2.451567   -0.603747
    102          6           0        5.676106   -5.270429   -1.365584
    103          6           0        3.534932   -6.227420   -2.026779
    104          1           0        1.841943   -4.876334   -2.141156
    105          6           0        4.567556    6.717754   -0.462931
    106          1           0        2.701708    5.713796   -0.928031
    107          6           0        6.501047    5.308560    0.000383
    108          6           0       10.012807    1.033356    0.291944
    109          6           0        9.803546   -1.774930   -0.121869
    110          6           0        4.905971   -6.365071   -1.750929
    111          1           0        6.737377   -5.366315   -1.155527
    112          1           0        2.962988   -7.102363   -2.325762
    113          6           0        5.925848    6.569791   -0.133914
    114          1           0        4.151272    7.717055   -0.563043
    115          1           0        7.551386    5.184761    0.247201
    116          6           0       11.140789    0.216579    0.308454
    117          1           0       10.083870    2.106646    0.441859
    118          6           0       11.037494   -1.170119    0.104144
    119          1           0        9.714939   -2.844514   -0.288327
    120          1           0        5.370577   -7.343673   -1.842631
    121          1           0        6.535874    7.457239    0.014905
    122          1           0       12.120153    0.656528    0.479231
    123          1           0       11.938842   -1.777737    0.120457
    124          6           0       -3.070325   -0.445089   -2.635371
    125          7           0       -4.174698   -0.373582   -1.891722
    126          7           0       -3.333338   -1.115679   -3.792233
    127          6           0       -5.165269   -1.014809   -2.596786
    128          6           0       -4.659876   -1.480370   -3.774696
    129          6           0       -2.415914   -1.371896   -4.888668
    130          1           0       -6.168400   -1.100739   -2.207645
    131          1           0       -5.112485   -2.024538   -4.590044
    132          1           0       -2.888879   -1.091012   -5.833432
    133          1           0       -1.514113   -0.775807   -4.748266
    134          1           0       -2.141856   -2.430796   -4.922318
 ---------------------------------------------------------------------

 SCF Done:  E(RLC-B+HF-LYP) =  -7412.24361577     A.U. after   28 cycles

 Excitation energies and oscillator strengths:

 Excited State   1:      Singlet-A      1.6967 eV  730.73 nm  f=0.9601  <S**2>=0.000
     333 -> 339       -0.13336
     334 -> 340        0.12584
     335 -> 338        0.42925
     335 -> 340        0.14887
     336 -> 337        0.51097
 This state for optimization and/or second-order correction.
 Total Energy, E(TD-HF/TD-KS) =  -7412.18126248
 Copying the excited state density for this state as the 1-particle RhoCI density.

 Excited State   2:      Singlet-A      1.7531 eV  707.23 nm  f=0.0057  <S**2>=0.000
     333 -> 340       -0.14276
     334 -> 339        0.13861
     335 -> 337        0.44866
     335 -> 339       -0.12620
     336 -> 338        0.49240

 Excited State   3:      Singlet-A      1.7793 eV  696.82 nm  f=0.1239  <S**2>=0.000
     333 -> 337        0.14309
     334 -> 338       -0.13081
     335 -> 338       -0.15770
     335 -> 340        0.43057
     336 -> 339        0.50187

 Excited State   4:      Singlet-A      1.8237 eV  679.83 nm  f=0.7424  <S**2>=0.000
     333 -> 338        0.14769
     334 -> 337       -0.14586
     335 -> 337        0.13427
     335 -> 339        0.44776
     336 -> 340        0.48669

 Excited State   5:      Singlet-A      3.1272 eV  396.48 nm  f=0.0005  <S**2>=0.000
     335 -> 337        0.48687
     335 -> 339       -0.10271
     336 -> 338       -0.47342

 Excited State   6:      Singlet-A      3.1342 eV  395.58 nm  f=0.0021  <S**2>=0.000
     335 -> 338        0.50371
     336 -> 337       -0.45168
     336 -> 339        0.11288

 Excited State   7:      Singlet-A      3.3530 eV  369.77 nm  f=0.0085  <S**2>=0.000
     335 -> 340        0.49732
     336 -> 337       -0.10736
     336 -> 339       -0.46069

 Excited State   8:      Singlet-A      3.3570 eV  369.33 nm  f=0.0000  <S**2>=0.000
     335 -> 339        0.49266
     336 -> 340       -0.47695

 The electronic state is 1-A.
 Alpha  occ. eigenvalues -- -345.96117-345.96116 -41.82976 -41.82976 -36.90908
 Alpha  occ. eigenvalues --  -36.90907 -36.90638 -36.90638 -36.90619 -36.90619
 Alpha  occ. eigenvalues --  -14.29399 -14.29398 -14.23347 -14.23345 -14.20975
 Alpha  occ. eigenvalues --  -14.20975 -14.20861 -14.20861 -14.20831 -14.20831
 Alpha  occ. eigenvalues --  -14.20660 -14.20659 -14.20644 -14.20643 -14.20550
 Alpha  occ. eigenvalues --  -14.20549 -14.20519 -14.20519 -14.20453 -14.20452
 Alpha  occ. eigenvalues --  -10.20079 -10.20077 -10.18268 -10.18267 -10.18255
 Alpha  occ. eigenvalues --  -10.18254 -10.18131 -10.18130 -10.18037 -10.18036
 Alpha  occ. eigenvalues --  -10.17885 -10.17885 -10.17868 -10.17867 -10.17812
 Alpha  occ. eigenvalues --  -10.17811 -10.17800 -10.17799 -10.17025 -10.17024
 Alpha  occ. eigenvalues --  -10.15398 -10.15397 -10.14428 -10.14426 -10.14190
 Alpha  occ. eigenvalues --  -10.14189 -10.13052 -10.13051 -10.12533 -10.12532
 Alpha  occ. eigenvalues --  -10.12227 -10.12225 -10.12171 -10.12170 -10.12111
 Alpha  occ. eigenvalues --  -10.12111 -10.11668 -10.11668 -10.11646 -10.11646
 Alpha  occ. eigenvalues --  -10.11620 -10.11619 -10.11584 -10.11584 -10.11519
 Alpha  occ. eigenvalues --  -10.11518 -10.11506 -10.11506 -10.11495 -10.11494
 Alpha  occ. eigenvalues --  -10.11479 -10.11478 -10.11463 -10.11462 -10.11459
 Alpha  occ. eigenvalues --  -10.11458 -10.11432 -10.11431 -10.11417 -10.11416
 Alpha  occ. eigenvalues --  -10.11382 -10.11382 -10.11374 -10.11374 -10.11370
 Alpha  occ. eigenvalues --  -10.11369 -10.11330 -10.11330 -10.11319 -10.11319
 Alpha  occ. eigenvalues --  -10.11273 -10.11273  -4.78060  -4.78060  -3.21980
 Alpha  occ. eigenvalues --   -3.21980  -3.21584  -3.21584  -3.21540  -3.21540
 Alpha  occ. eigenvalues --   -1.19290  -1.19288  -1.14588  -1.14572  -1.13196
 Alpha  occ. eigenvalues --   -1.13157  -1.13044  -1.13043  -1.10236  -1.10206
 Alpha  occ. eigenvalues --   -1.07953  -1.07946  -1.05708  -1.05706  -1.03826
 Alpha  occ. eigenvalues --   -1.03796  -1.03695  -1.03683  -1.01613  -1.01601
 Alpha  occ. eigenvalues --   -1.00490  -1.00479  -0.99754  -0.99752  -0.99648
 Alpha  occ. eigenvalues --   -0.99647  -0.99306  -0.99304  -0.94413  -0.94197
 Alpha  occ. eigenvalues --   -0.91491  -0.91371  -0.90320  -0.90287  -0.89957
 Alpha  occ. eigenvalues --   -0.89913  -0.89703  -0.89677  -0.89527  -0.89523
 Alpha  occ. eigenvalues --   -0.89498  -0.89451  -0.89297  -0.89294  -0.89252
 Alpha  occ. eigenvalues --   -0.89236  -0.87627  -0.87572  -0.85400  -0.85372
 Alpha  occ. eigenvalues --   -0.82600  -0.82539  -0.82371  -0.82369  -0.78432
 Alpha  occ. eigenvalues --   -0.78302  -0.76915  -0.76891  -0.76771  -0.76714
 Alpha  occ. eigenvalues --   -0.76545  -0.76522  -0.76044  -0.76040  -0.75597
 Alpha  occ. eigenvalues --   -0.75529  -0.75073  -0.75071  -0.73842  -0.73768
 Alpha  occ. eigenvalues --   -0.72540  -0.72521  -0.71966  -0.71912  -0.71654
 Alpha  occ. eigenvalues --   -0.71614  -0.71030  -0.71020  -0.69356  -0.69117
 Alpha  occ. eigenvalues --   -0.68388  -0.68182  -0.67615  -0.67609  -0.66894
 Alpha  occ. eigenvalues --   -0.66883  -0.65917  -0.65894  -0.65693  -0.65678
 Alpha  occ. eigenvalues --   -0.65499  -0.65476  -0.63642  -0.63635  -0.62237
 Alpha  occ. eigenvalues --   -0.62230  -0.61821  -0.61813  -0.61580  -0.61103
 Alpha  occ. eigenvalues --   -0.60721  -0.60556  -0.60490  -0.60459  -0.60235
 Alpha  occ. eigenvalues --   -0.60231  -0.60113  -0.60080  -0.59793  -0.59689
 Alpha  occ. eigenvalues --   -0.59561  -0.59208  -0.59173  -0.59022  -0.58669
 Alpha  occ. eigenvalues --   -0.58666  -0.58615  -0.58607  -0.58229  -0.58167
 Alpha  occ. eigenvalues --   -0.57879  -0.57825  -0.57730  -0.57519  -0.57201
 Alpha  occ. eigenvalues --   -0.57043  -0.56721  -0.56694  -0.56680  -0.56658
 Alpha  occ. eigenvalues --   -0.56590  -0.56466  -0.56386  -0.56352  -0.56006
 Alpha  occ. eigenvalues --   -0.56000  -0.55884  -0.55884  -0.55858  -0.55836
 Alpha  occ. eigenvalues --   -0.55194  -0.54928  -0.54924  -0.54784  -0.54777
 Alpha  occ. eigenvalues --   -0.54679  -0.54460  -0.54347  -0.54287  -0.54272
 Alpha  occ. eigenvalues --   -0.54108  -0.54075  -0.53327  -0.53280  -0.52591
 Alpha  occ. eigenvalues --   -0.52364  -0.50904  -0.50771  -0.49988  -0.49758
 Alpha  occ. eigenvalues --   -0.49646  -0.49331  -0.49103  -0.49102  -0.49040
 Alpha  occ. eigenvalues --   -0.49021  -0.48268  -0.48267  -0.48049  -0.48043
 Alpha  occ. eigenvalues --   -0.47331  -0.47317  -0.47131  -0.47106  -0.46990
 Alpha  occ. eigenvalues --   -0.46724  -0.46367  -0.46330  -0.46161  -0.46153
 Alpha  occ. eigenvalues --   -0.45254  -0.45249  -0.44790  -0.44711  -0.44705
 Alpha  occ. eigenvalues --   -0.44704  -0.44465  -0.44404  -0.43160  -0.42893
 Alpha  occ. eigenvalues --   -0.42765  -0.42515  -0.42080  -0.42025  -0.41390
 Alpha  occ. eigenvalues --   -0.41373  -0.39147  -0.39083  -0.39071  -0.39057
 Alpha  occ. eigenvalues --   -0.38706  -0.37983  -0.37676  -0.37364  -0.37344
 Alpha  occ. eigenvalues --   -0.37029  -0.36083  -0.36027  -0.35700  -0.35679
 Alpha  occ. eigenvalues --   -0.35456  -0.35437  -0.35417  -0.35407  -0.35060
 Alpha  occ. eigenvalues --   -0.35008  -0.34822  -0.34549  -0.34500  -0.34462
 Alpha  occ. eigenvalues --   -0.34388  -0.33785  -0.32953  -0.32925  -0.23302
 Alpha  occ. eigenvalues --   -0.22850
 Alpha virt. eigenvalues --   -0.05198  -0.05058  -0.04866  -0.04757   0.03043
 Alpha virt. eigenvalues --    0.03047   0.03713   0.03907   0.04908   0.05026
 Alpha virt. eigenvalues --    0.05308   0.05312   0.05416   0.05481   0.07142

 Mulliken charges:
               1
     1  C    0.122647
     2  C   -0.198393
     3  C   -0.378030
     4  C   -0.226926
     5  H    0.154244
     6  C    0.243299
     7  H    0.146860
     8  C    0.074768
     9  H    0.140659
    10  C    0.300030
    11  C    0.435826
    12  N   -0.363908
    13  N   -0.570105
    14  N   -0.567949
    15  Zn   0.158743
    16  C    0.374767
    17  C    0.367837
    18  N   -0.313191
    19  N   -0.350499
    20  N   -0.316600
    21  C    0.021951
    22  C    0.051514
    23  C    0.365706
    24  C    0.374548
    25  C    0.311984
    26  C    0.373560
    27  C    0.068491
    28  C   -0.201397
    29  C   -0.203809
    30  C    0.069838
    31  N   -0.562282
    32  C    0.071999
    33  C    0.092569
    34  N   -0.551866
    35  C   -0.199985
    36  C   -0.096799
    37  H    0.140337
    38  C   -0.095267
    39  H    0.144170
    40  C   -0.196856
    41  C   -0.198714
    42  C   -0.200975
    43  C   -0.096389
    44  H    0.143162
    45  H    0.122901
    46  C   -0.095913
    47  H    0.124166
    48  H    0.143675
    49  C   -0.093882
    50  H    0.145225
    51  C   -0.096363
    52  H    0.144945
    53  H    0.123101
    54  H    0.123717
    55  H    0.124871
    56  H    0.124805
    57  C    0.381607
    58  N   -0.359354
    59  N   -0.225505
    60  C   -0.050042
    61  C   -0.031202
    62  C   -0.364270
    63  H    0.179763
    64  H    0.163119
    65  H    0.172121
    66  H    0.202755
    67  H    0.180404
    68  C    0.122597
    69  C   -0.198393
    70  C   -0.377655
    71  C   -0.226932
    72  H    0.154240
    73  C    0.243019
    74  H    0.146878
    75  C    0.074750
    76  H    0.140654
    77  C    0.300026
    78  C    0.435877
    79  N   -0.363985
    80  N   -0.570110
    81  N   -0.567947
    82  Zn   0.158665
    83  C    0.374781
    84  C    0.367849
    85  N   -0.313233
    86  N   -0.350526
    87  N   -0.316622
    88  C    0.021956
    89  C    0.051523
    90  C    0.365715
    91  C    0.374530
    92  C    0.311967
    93  C    0.373563
    94  C    0.068489
    95  C   -0.201396
    96  C   -0.203812
    97  C    0.069835
    98  N   -0.562282
    99  C    0.072013
   100  C    0.092580
   101  N   -0.551869
   102  C   -0.199984
   103  C   -0.096801
   104  H    0.140333
   105  C   -0.095266
   106  H    0.144165
   107  C   -0.196863
   108  C   -0.198715
   109  C   -0.200976
   110  C   -0.096388
   111  H    0.143161
   112  H    0.122898
   113  C   -0.095912
   114  H    0.124163
   115  H    0.143673
   116  C   -0.093884
   117  H    0.145224
   118  C   -0.096365
   119  H    0.144943
   120  H    0.123099
   121  H    0.123715
   122  H    0.124869
   123  H    0.124802
   124  C    0.381623
   125  N   -0.359550
   126  N   -0.225503
   127  C   -0.050059
   128  C   -0.031235
   129  C   -0.364272
   130  H    0.179751
   131  H    0.163124
   132  H    0.172099
   133  H    0.202754
   134  H    0.180414
 Sum of Mulliken charges =  -0.00000

 Dipole moment (field-independent basis, Debye):
    X=             -0.0010    Y=             -2.8364    Z=              0.0015  Tot=              2.8364
 Quadrupole moment (field-independent basis, Debye-Ang):
   XX=           -534.3097   YY=           -507.9674   ZZ=           -508.9399
   XY=             -0.0001   XZ=             50.5249   YZ=             -0.0003

 Normal termination of Gaussian 09 at Wed May 21 08:59:44 2025.
