 Gaussian 09, Revision E.01,

 ----------------------------------------------------------
 #p lc-blyp/def2svp iop(3/107=0400000000, 3/108=0400000000)
 ----------------------------------------------------------

 -----------------------------------
 ZnPc dimer, monomer geom b3pw/631dp
 -----------------------------------
 Symbolic Z-matrix:
 Charge =  0 Multiplicity = 1

 SCF Done:  E(RLC-B+HF-LYP) =  -6880.69599414     A.U. after   15 cycles
 Normal termination of Gaussian 09 at Wed Dec 18 17:02:08 2024.
 Gaussian 09:  ES64L-G09RevE.01 30-Nov-2015

 ----------------------------------------------------------------------
 #p td(nstates=40) lc-blyp/gen iop(3/107=0400000000, 3/108=0400000000)
 geom=check guess=read
 ----------------------------------------------------------------------

 -----------------------------------------------------------------
 ZnPc dimer lc-blyp(mu=0.4)/def2-tzvp(-f), monomer geom b3pw/631dp
 -----------------------------------------------------------------
 Structure from the checkpoint file:  "ZnPc2_33.chk"
 Charge =  0 Multiplicity = 1

                         Standard orientation:
 ---------------------------------------------------------------------
 Center     Atomic      Atomic             Coordinates (Angstroms)
 Number     Number       Type             X           Y           Z
 ---------------------------------------------------------------------
      1          6           0       -0.702825    6.555074    1.650000
      2          6           0        0.702825    6.555074    1.650000
      3          6           0       -1.423858    5.364764    1.650000
      4          6           0       -0.703557    4.172041    1.650000
      5          6           0        0.703557    4.172041    1.650000
      6          6           0        1.423858    5.364764    1.650000
      7          6           0       -1.116363    2.774321    1.650000
      8          6           0        1.116363    2.774321    1.650000
      9          7           0        0.000000    1.982317    1.650000
     10          7           0        2.385083    2.385083    1.650000
     11          7           0       -2.385083    2.385083    1.650000
     12          1           0       -1.232530    7.503704    1.650000
     13          1           0        1.232530    7.503704    1.650000
     14          1           0       -2.509174    5.355287    1.650000
     15          1           0        2.509174    5.355287    1.650000
     16          6           0       -6.555074   -0.702825    1.650000
     17          6           0       -6.555074    0.702825    1.650000
     18          6           0       -5.364764   -1.423858    1.650000
     19          6           0       -4.172041   -0.703557    1.650000
     20          6           0       -4.172041    0.703557    1.650000
     21          6           0       -5.364764    1.423858    1.650000
     22          6           0       -2.774321   -1.116363    1.650000
     23          6           0       -2.774321    1.116363    1.650000
     24          7           0       -1.982317    0.000000    1.650000
     25          7           0       -2.385083   -2.385083    1.650000
     26          1           0       -7.503704   -1.232530    1.650000
     27          1           0       -7.503704    1.232530    1.650000
     28          1           0       -5.355287   -2.509174    1.650000
     29          1           0       -5.355287    2.509174    1.650000
     30          6           0        6.555074    0.702825    1.650000
     31          6           0        6.555074   -0.702825    1.650000
     32          6           0        5.364764    1.423858    1.650000
     33          6           0        4.172041    0.703557    1.650000
     34          6           0        4.172041   -0.703557    1.650000
     35          6           0        5.364764   -1.423858    1.650000
     36          6           0        2.774321    1.116363    1.650000
     37          6           0        2.774321   -1.116363    1.650000
     38          7           0        1.982317   -0.000000    1.650000
     39          7           0        2.385083   -2.385083    1.650000
     40          1           0        7.503704    1.232530    1.650000
     41          1           0        7.503704   -1.232530    1.650000
     42          1           0        5.355287    2.509174    1.650000
     43          1           0        5.355287   -2.509174    1.650000
     44          6           0        0.702825   -6.555074    1.650000
     45          6           0       -0.702825   -6.555074    1.650000
     46          6           0        1.423858   -5.364764    1.650000
     47          6           0        0.703557   -4.172041    1.650000
     48          6           0       -0.703557   -4.172041    1.650000
     49          6           0       -1.423858   -5.364764    1.650000
     50          6           0        1.116363   -2.774321    1.650000
     51          6           0       -1.116363   -2.774321    1.650000
     52          7           0       -0.000000   -1.982317    1.650000
     53          1           0        1.232530   -7.503704    1.650000
     54          1           0       -1.232530   -7.503704    1.650000
     55          1           0        2.509174   -5.355287    1.650000
     56          1           0       -2.509174   -5.355287    1.650000
     57         30           0        0.000000    0.000000    1.650000
     58          6           0       -0.702825    6.555074   -1.650000
     59          6           0        0.702825    6.555074   -1.650000
     60          6           0       -1.423858    5.364764   -1.650000
     61          6           0       -0.703557    4.172041   -1.650000
     62          6           0        0.703557    4.172041   -1.650000
     63          6           0        1.423858    5.364764   -1.650000
     64          6           0       -1.116363    2.774321   -1.650000
     65          6           0        1.116363    2.774321   -1.650000
     66          7           0        0.000000    1.982317   -1.650000
     67          7           0        2.385083    2.385083   -1.650000
     68          7           0       -2.385083    2.385083   -1.650000
     69          1           0       -1.232530    7.503704   -1.650000
     70          1           0        1.232530    7.503704   -1.650000
     71          1           0       -2.509174    5.355287   -1.650000
     72          1           0        2.509174    5.355287   -1.650000
     73          6           0       -6.555074   -0.702825   -1.650000
     74          6           0       -6.555074    0.702825   -1.650000
     75          6           0       -5.364764   -1.423858   -1.650000
     76          6           0       -4.172041   -0.703557   -1.650000
     77          6           0       -4.172041    0.703557   -1.650000
     78          6           0       -5.364764    1.423858   -1.650000
     79          6           0       -2.774321   -1.116363   -1.650000
     80          6           0       -2.774321    1.116363   -1.650000
     81          7           0       -1.982317    0.000000   -1.650000
     82          7           0       -2.385083   -2.385083   -1.650000
     83          1           0       -7.503704   -1.232530   -1.650000
     84          1           0       -7.503704    1.232530   -1.650000
     85          1           0       -5.355287   -2.509174   -1.650000
     86          1           0       -5.355287    2.509174   -1.650000
     87          6           0        6.555074    0.702825   -1.650000
     88          6           0        6.555074   -0.702825   -1.650000
     89          6           0        5.364764    1.423858   -1.650000
     90          6           0        4.172041    0.703557   -1.650000
     91          6           0        4.172041   -0.703557   -1.650000
     92          6           0        5.364764   -1.423858   -1.650000
     93          6           0        2.774321    1.116363   -1.650000
     94          6           0        2.774321   -1.116363   -1.650000
     95          7           0        1.982317   -0.000000   -1.650000
     96          7           0        2.385083   -2.385083   -1.650000
     97          1           0        7.503704    1.232530   -1.650000
     98          1           0        7.503704   -1.232530   -1.650000
     99          1           0        5.355287    2.509174   -1.650000
    100          1           0        5.355287   -2.509174   -1.650000
    101          6           0        0.702825   -6.555074   -1.650000
    102          6           0       -0.702825   -6.555074   -1.650000
    103          6           0        1.423858   -5.364764   -1.650000
    104          6           0        0.703557   -4.172041   -1.650000
    105          6           0       -0.703557   -4.172041   -1.650000
    106          6           0       -1.423858   -5.364764   -1.650000
    107          6           0        1.116363   -2.774321   -1.650000
    108          6           0       -1.116363   -2.774321   -1.650000
    109          7           0       -0.000000   -1.982317   -1.650000
    110          1           0        1.232530   -7.503704   -1.650000
    111          1           0       -1.232530   -7.503704   -1.650000
    112          1           0        2.509174   -5.355287   -1.650000
    113          1           0       -2.509174   -5.355287   -1.650000
    114         30           0        0.000000    0.000000   -1.650000
 ---------------------------------------------------------------------

 SCF Done:  E(RLC-B+HF-LYP) =  -6884.67368099     A.U. after   14 cycles

 Excitation energies and oscillator strengths:

 Excited State   1:      Singlet-EG     0.8743 eV 1418.15 nm  f=0.0000  <S**2>=0.000
     293 -> 298       -0.11675
     294 -> 296        0.69595
 This state for optimization and/or second-order correction.
 Total Energy, E(TD-HF/TD-KS) =  -6884.64155233
 Copying the excited state density for this state as the 1-particle RhoCI density.

 Excited State   2:      Singlet-EG     0.8743 eV 1418.15 nm  f=0.0000  <S**2>=0.000
     293 -> 297       -0.11675
     294 -> 295        0.69595

 Excited State   3:      Singlet-EU     1.9186 eV  646.23 nm  f=0.6635  <S**2>=0.000
     283 -> 296       -0.14573
     292 -> 298       -0.13217
     293 -> 295       -0.41549
     294 -> 297        0.53238

 Excited State   4:      Singlet-EU     1.9186 eV  646.23 nm  f=0.6635  <S**2>=0.000
     283 -> 295        0.14573
     292 -> 297        0.13217
     293 -> 296       -0.41549
     294 -> 298        0.53238

 Excited State   5:      Singlet-EU     2.2320 eV  555.49 nm  f=0.0092  <S**2>=0.000
     293 -> 296        0.55129
     294 -> 298        0.44151

 Excited State   6:      Singlet-EU     2.2320 eV  555.49 nm  f=0.0092  <S**2>=0.000
     293 -> 295        0.55129
     294 -> 297        0.44151

 Excited State   7:      Singlet-EG     2.8552 eV  434.24 nm  f=0.0000  <S**2>=0.000
     285 -> 296       -0.10550
     292 -> 296        0.18137
     293 -> 297        0.65279
     294 -> 295        0.13994

 Excited State   8:      Singlet-EG     2.8552 eV  434.24 nm  f=0.0000  <S**2>=0.000
     285 -> 295        0.10550
     292 -> 295       -0.18137
     293 -> 298        0.65279
     294 -> 296        0.13994

 Excited State   9:      Singlet-B2U    3.3251 eV  372.87 nm  f=0.0000  <S**2>=0.000
     287 -> 296        0.15545
     288 -> 295        0.15545
     293 -> 304        0.11604
     294 -> 299        0.63346

 Excited State  10:      Singlet-A1U    3.4186 eV  362.68 nm  f=0.0000  <S**2>=0.000
     294 -> 300        0.66265
     294 -> 309        0.14337

 Excited State  11:      Singlet-B1U    3.6109 eV  343.36 nm  f=0.0000  <S**2>=0.000
     278 -> 297        0.10020
     279 -> 298        0.10020
     285 -> 299       -0.11588
     289 -> 296       -0.36905
     290 -> 295       -0.36905
     294 -> 301        0.38498

 Excited state symmetry could not be determined.
 Excited State  12:      Singlet-?Sym    3.6366 eV  340.94 nm  f=0.0000  <S**2>=0.000
     278 -> 297       -0.12030
     279 -> 298        0.12030
     289 -> 296       -0.44521
     290 -> 295        0.44521
     291 -> 299       -0.18184

 Excited State  13:      Singlet-EG     3.6720 eV  337.64 nm  f=0.0000  <S**2>=0.000
     283 -> 298        0.10981
     285 -> 296       -0.37706
     291 -> 296       -0.21849
     292 -> 296        0.45738
     293 -> 297       -0.22284

 Excited State  14:      Singlet-EG     3.6720 eV  337.64 nm  f=0.0000  <S**2>=0.000
     283 -> 297        0.10981
     285 -> 295       -0.37706
     291 -> 295        0.21849
     292 -> 295        0.45738
     293 -> 298        0.22284

 Excited State  15:      Singlet-EG     3.6972 eV  335.35 nm  f=0.0000  <S**2>=0.000
     281 -> 297       -0.25181
     284 -> 295        0.48985
     291 -> 295       -0.28522
     292 -> 295        0.24004

 Excited State  16:      Singlet-EG     3.6972 eV  335.35 nm  f=0.0000  <S**2>=0.000
     281 -> 298       -0.25181
     284 -> 296        0.48985
     291 -> 296       -0.28522
     292 -> 296       -0.24004

 Excited State  17:      Singlet-EG     3.7171 eV  333.55 nm  f=0.0000  <S**2>=0.000
     281 -> 298       -0.20495
     284 -> 296        0.36055
     285 -> 296        0.14109
     289 -> 299        0.14419
     291 -> 296        0.40128
     292 -> 296        0.26401
     294 -> 303       -0.10664

 Excited State  18:      Singlet-EG     3.7171 eV  333.55 nm  f=0.0000  <S**2>=0.000
     281 -> 297       -0.20495
     284 -> 295        0.36055
     285 -> 295       -0.14109
     290 -> 299       -0.14419
     291 -> 295        0.40128
     292 -> 295       -0.26401
     294 -> 302       -0.10664

 Excited State  19:      Singlet-EU     3.7450 eV  331.07 nm  f=0.0000  <S**2>=0.000
     281 -> 295        0.59660
     284 -> 297       -0.34823

 Excited State  20:      Singlet-EU     3.7450 eV  331.07 nm  f=0.0000  <S**2>=0.000
     281 -> 296        0.59660
     284 -> 298       -0.34823

 Excited State  21:      Singlet-B1U    3.7767 eV  328.29 nm  f=0.0000  <S**2>=0.000
     289 -> 296        0.26698
     290 -> 295        0.26698
     294 -> 301        0.55694

 Excited State  22:      Singlet-EG     4.0178 eV  308.58 nm  f=0.0000  <S**2>=0.000
     286 -> 296        0.19711
     292 -> 295       -0.12787
     294 -> 302        0.61084

 Excited State  23:      Singlet-EG     4.0178 eV  308.58 nm  f=0.0000  <S**2>=0.000
     286 -> 295       -0.19711
     292 -> 296        0.12787
     294 -> 303        0.61084

 Excited state symmetry could not be determined.
 Excited State  24:      Singlet-?Sym    4.0497 eV  306.16 nm  f=0.0002  <S**2>=0.000
     286 -> 299        0.20469
     287 -> 296       -0.42781
     288 -> 295        0.42781
     291 -> 301       -0.10087

 Excited state symmetry could not be determined.
 Excited State  25:      Singlet-?Sym    4.1148 eV  301.31 nm  f=0.0000  <S**2>=0.000
     282 -> 299       -0.11903
     285 -> 301       -0.10049
     287 -> 296       -0.22742
     288 -> 295       -0.22742
     289 -> 295       -0.35860
     290 -> 296        0.35860
     294 -> 299        0.23009

 Excited state symmetry could not be determined.
 Excited State  26:      Singlet-?Sym    4.1553 eV  298.37 nm  f=0.0000  <S**2>=0.000
     278 -> 295       -0.28834
     279 -> 296        0.28834
     280 -> 299        0.13131
     289 -> 298       -0.31306
     290 -> 297        0.31306
     291 -> 304        0.14117
     293 -> 300       -0.20362
     294 -> 306        0.12517

 Excited State  27:      Singlet-B1G    4.1741 eV  297.03 nm  f=0.0000  <S**2>=0.000
     278 -> 296       -0.11835
     279 -> 295        0.11835
     287 -> 298       -0.10139
     288 -> 297       -0.10139
     289 -> 297       -0.10447
     290 -> 298        0.10447
     293 -> 299        0.40561
     294 -> 304        0.45459

 Excited state symmetry could not be determined.
 Excited State  28:      Singlet-?Sym    4.1934 eV  295.66 nm  f=0.0000  <S**2>=0.000
     272 -> 299       -0.11168
     278 -> 295       -0.29738
     279 -> 296       -0.29738
     285 -> 304       -0.11305
     289 -> 298        0.32612
     290 -> 297        0.32612
     293 -> 301        0.15383
     294 -> 305       -0.14255

 Excited State  29:      Singlet-EG     4.2210 eV  293.73 nm  f=0.0000  <S**2>=0.000
     282 -> 296       -0.20581
     285 -> 295       -0.26077
     286 -> 296        0.34074
     287 -> 299       -0.14886
     289 -> 300       -0.11442
     289 -> 301       -0.13899
     291 -> 295       -0.20120
     291 -> 303       -0.12094
     292 -> 295       -0.18242
     294 -> 302       -0.24049

 Excited State  30:      Singlet-EG     4.2210 eV  293.73 nm  f=0.0000  <S**2>=0.000
     282 -> 295        0.20581
     285 -> 296       -0.26077
     286 -> 295        0.34074
     288 -> 299        0.14886
     290 -> 300       -0.11442
     290 -> 301        0.13899
     291 -> 296        0.20120
     291 -> 302        0.12094
     292 -> 296       -0.18242
     294 -> 303        0.24049

 Excited state symmetry could not be determined.
 Excited State  31:      Singlet-?Sym    4.2486 eV  291.82 nm  f=0.0010  <S**2>=0.000
     289 -> 295        0.46613
     290 -> 296        0.46613
     291 -> 301        0.12423

 Excited State  32:      Singlet-EU     4.2671 eV  290.56 nm  f=0.0784  <S**2>=0.000
     272 -> 296       -0.23545
     279 -> 299       -0.13186
     280 -> 296       -0.35584
     285 -> 298        0.27329
     289 -> 304       -0.14703
     291 -> 298        0.39282

 Excited State  33:      Singlet-EU     4.2671 eV  290.56 nm  f=0.0784  <S**2>=0.000
     272 -> 295        0.23545
     278 -> 299        0.13186
     280 -> 295       -0.35584
     285 -> 297       -0.27329
     290 -> 304        0.14703
     291 -> 297        0.39282

 Excited State  34:      Singlet-A2G    4.3130 eV  287.47 nm  f=0.0000  <S**2>=0.000
     278 -> 295       -0.11137
     279 -> 296        0.11137
     289 -> 298       -0.12305
     290 -> 297        0.12305
     293 -> 300        0.53980
     293 -> 309        0.15752
     294 -> 306       -0.32544

 Excited State  35:      Singlet-EG     4.3258 eV  286.61 nm  f=0.0000  <S**2>=0.000
     271 -> 299       -0.11736
     273 -> 297       -0.24803
     274 -> 297       -0.17775
     277 -> 295        0.58378

 Excited State  36:      Singlet-EG     4.3258 eV  286.61 nm  f=0.0000  <S**2>=0.000
     270 -> 299        0.11736
     273 -> 298       -0.24803
     274 -> 298       -0.17775
     277 -> 296        0.58378

 Excited state symmetry could not be determined.
 Excited State  37:      Singlet-?Sym    4.3313 eV  286.25 nm  f=0.0000  <S**2>=0.000
     282 -> 299        0.11642
     287 -> 296        0.37439
     288 -> 295        0.37439
     289 -> 295       -0.27287
     290 -> 296        0.27287
     294 -> 299       -0.11783

 Excited State  38:      Singlet-EG     4.4160 eV  280.76 nm  f=0.0000  <S**2>=0.000
     282 -> 296       -0.14186
     285 -> 295        0.40893
     286 -> 296        0.38037
     287 -> 299       -0.10368
     291 -> 295        0.28002
     292 -> 295        0.13499
     294 -> 302       -0.11653

 Excited State  39:      Singlet-EG     4.4160 eV  280.76 nm  f=0.0000  <S**2>=0.000
     282 -> 295        0.14186
     285 -> 296        0.40893
     286 -> 295        0.38037
     288 -> 299        0.10368
     291 -> 296       -0.28002
     292 -> 296        0.13499
     294 -> 303        0.11653

 Excited state symmetry could not be determined.
 Excited State  40:      Singlet-?Sym    4.4273 eV  280.05 nm  f=0.0000  <S**2>=0.000
     286 -> 301       -0.12321
     287 -> 295        0.44499
     288 -> 296        0.44499
     294 -> 309       -0.12187

 The electronic state is 1-A1G.
 Alpha  occ. eigenvalues -- -345.99303-345.99303 -41.86367 -41.86366 -36.94677
 Alpha  occ. eigenvalues --  -36.94676 -36.93795 -36.93795 -36.93794 -36.93794
 Alpha  occ. eigenvalues --  -14.22287 -14.22286 -14.22286 -14.22286 -14.22286
 Alpha  occ. eigenvalues --  -14.22285 -14.22284 -14.22284 -14.21321 -14.21321
 Alpha  occ. eigenvalues --  -14.21321 -14.21321 -14.21321 -14.21320 -14.21320
 Alpha  occ. eigenvalues --  -14.21320 -10.18863 -10.18862 -10.18861 -10.18861
 Alpha  occ. eigenvalues --  -10.18860 -10.18860 -10.18858 -10.18858 -10.18857
 Alpha  occ. eigenvalues --  -10.18855 -10.18855 -10.18855 -10.18853 -10.18852
 Alpha  occ. eigenvalues --  -10.18852 -10.18850 -10.11833 -10.11833 -10.11833
 Alpha  occ. eigenvalues --  -10.11833 -10.11830 -10.11830 -10.11830 -10.11830
 Alpha  occ. eigenvalues --  -10.11797 -10.11796 -10.11796 -10.11796 -10.11796
 Alpha  occ. eigenvalues --  -10.11795 -10.11795 -10.11795 -10.11689 -10.11689
 Alpha  occ. eigenvalues --  -10.11688 -10.11688 -10.11688 -10.11688 -10.11688
 Alpha  occ. eigenvalues --  -10.11688 -10.11688 -10.11688 -10.11688 -10.11687
 Alpha  occ. eigenvalues --  -10.11686 -10.11686 -10.11686 -10.11685 -10.11562
 Alpha  occ. eigenvalues --  -10.11561 -10.11561 -10.11561 -10.11560 -10.11560
 Alpha  occ. eigenvalues --  -10.11560 -10.11559 -10.11521 -10.11521 -10.11521
 Alpha  occ. eigenvalues --  -10.11521 -10.11521 -10.11521 -10.11521 -10.11521
 Alpha  occ. eigenvalues --   -4.81399  -4.81399  -3.26044  -3.26042  -3.24524
 Alpha  occ. eigenvalues --   -3.24524  -3.24523  -3.24523  -1.15787  -1.15242
 Alpha  occ. eigenvalues --   -1.14253  -1.14253  -1.13732  -1.13732  -1.11348
 Alpha  occ. eigenvalues --   -1.10856  -1.08976  -1.08532  -1.04682  -1.04682
 Alpha  occ. eigenvalues --   -1.04271  -1.04271  -1.01538  -1.01043  -1.00429
 Alpha  occ. eigenvalues --   -1.00429  -1.00388  -1.00229  -0.99725  -0.99725
 Alpha  occ. eigenvalues --   -0.99676  -0.99673  -0.92061  -0.91415  -0.90835
 Alpha  occ. eigenvalues --   -0.90529  -0.90529  -0.90179  -0.90158  -0.90158
 Alpha  occ. eigenvalues --   -0.89983  -0.89901  -0.89901  -0.89815  -0.89489
 Alpha  occ. eigenvalues --   -0.89489  -0.89377  -0.89124  -0.86133  -0.85599
 Alpha  occ. eigenvalues --   -0.83299  -0.83299  -0.82856  -0.82856  -0.77717
 Alpha  occ. eigenvalues --   -0.77691  -0.77313  -0.77144  -0.76822  -0.76822
 Alpha  occ. eigenvalues --   -0.76283  -0.76283  -0.76050  -0.75729  -0.75536
 Alpha  occ. eigenvalues --   -0.75284  -0.73212  -0.73212  -0.73098  -0.72760
 Alpha  occ. eigenvalues --   -0.72714  -0.72714  -0.72018  -0.71543  -0.69496
 Alpha  occ. eigenvalues --   -0.68937  -0.68338  -0.68338  -0.67913  -0.67913
 Alpha  occ. eigenvalues --   -0.67019  -0.66641  -0.66619  -0.66619  -0.66300
 Alpha  occ. eigenvalues --   -0.66300  -0.63210  -0.63064  -0.62922  -0.62853
 Alpha  occ. eigenvalues --   -0.62825  -0.62819  -0.62679  -0.62621  -0.62567
 Alpha  occ. eigenvalues --   -0.62390  -0.62390  -0.60852  -0.60852  -0.60813
 Alpha  occ. eigenvalues --   -0.60813  -0.60415  -0.60415  -0.59461  -0.59461
 Alpha  occ. eigenvalues --   -0.59399  -0.59069  -0.59069  -0.59066  -0.59066
 Alpha  occ. eigenvalues --   -0.58869  -0.58590  -0.58482  -0.58433  -0.58353
 Alpha  occ. eigenvalues --   -0.58135  -0.58002  -0.57756  -0.57704  -0.57069
 Alpha  occ. eigenvalues --   -0.56559  -0.56451  -0.56451  -0.56381  -0.56134
 Alpha  occ. eigenvalues --   -0.56134  -0.55971  -0.55971  -0.55870  -0.55231
 Alpha  occ. eigenvalues --   -0.55016  -0.55016  -0.54849  -0.54672  -0.54672
 Alpha  occ. eigenvalues --   -0.53760  -0.53535  -0.53449  -0.53334  -0.53332
 Alpha  occ. eigenvalues --   -0.52110  -0.51704  -0.51616  -0.51616  -0.49696
 Alpha  occ. eigenvalues --   -0.49532  -0.48815  -0.48571  -0.48571  -0.48460
 Alpha  occ. eigenvalues --   -0.48218  -0.48218  -0.47931  -0.47931  -0.47670
 Alpha  occ. eigenvalues --   -0.47460  -0.47460  -0.47380  -0.47068  -0.47068
 Alpha  occ. eigenvalues --   -0.46985  -0.46970  -0.46623  -0.45769  -0.45769
 Alpha  occ. eigenvalues --   -0.45591  -0.45429  -0.45429  -0.45345  -0.45345
 Alpha  occ. eigenvalues --   -0.45307  -0.45251  -0.43034  -0.42416  -0.41746
 Alpha  occ. eigenvalues --   -0.41746  -0.40453  -0.40004  -0.40004  -0.39439
 Alpha  occ. eigenvalues --   -0.39439  -0.38569  -0.38201  -0.38123  -0.37868
 Alpha  occ. eigenvalues --   -0.37868  -0.37625  -0.36980  -0.36980  -0.36794
 Alpha  occ. eigenvalues --   -0.36059  -0.36003  -0.35823  -0.35798  -0.34499
 Alpha  occ. eigenvalues --   -0.33828  -0.33657  -0.33657  -0.33127  -0.33127
 Alpha  occ. eigenvalues --   -0.32938  -0.32385  -0.25529  -0.21798
 Alpha virt. eigenvalues --   -0.07275  -0.07275  -0.03954  -0.03954   0.01446
 Alpha virt. eigenvalues --    0.01698   0.02257   0.03071   0.03071   0.04974
 Alpha virt. eigenvalues --    0.06171   0.06306   0.07455   0.07455   0.07679

 Mulliken charges:
               1
     1  C   -0.086498
     2  C   -0.086498
     3  C   -0.228416
     4  C    0.107253
     5  C    0.107253
     6  C   -0.228416
     7  C    0.394949
     8  C    0.394949
     9  N   -0.297295
    10  N   -0.573382
    11  N   -0.573382
    12  H    0.122068
    13  H    0.122068
    14  H    0.137103
    15  H    0.137103
    16  C   -0.086498
    17  C   -0.086498
    18  C   -0.228416
    19  C    0.107253
    20  C    0.107253
    21  C   -0.228416
    22  C    0.394949
    23  C    0.394949
    24  N   -0.297295
    25  N   -0.573382
    26  H    0.122068
    27  H    0.122068
    28  H    0.137103
    29  H    0.137103
    30  C   -0.086498
    31  C   -0.086498
    32  C   -0.228416
    33  C    0.107253
    34  C    0.107253
    35  C   -0.228416
    36  C    0.394949
    37  C    0.394949
    38  N   -0.297295
    39  N   -0.573382
    40  H    0.122068
    41  H    0.122068
    42  H    0.137103
    43  H    0.137103
    44  C   -0.086498
    45  C   -0.086498
    46  C   -0.228416
    47  C    0.107253
    48  C    0.107253
    49  C   -0.228416
    50  C    0.394949
    51  C    0.394949
    52  N   -0.297295
    53  H    0.122068
    54  H    0.122068
    55  H    0.137103
    56  H    0.137103
    57  Zn  -0.088966
    58  C   -0.086498
    59  C   -0.086498
    60  C   -0.228416
    61  C    0.107253
    62  C    0.107253
    63  C   -0.228416
    64  C    0.394949
    65  C    0.394949
    66  N   -0.297295
    67  N   -0.573382
    68  N   -0.573382
    69  H    0.122068
    70  H    0.122068
    71  H    0.137103
    72  H    0.137103
    73  C   -0.086498
    74  C   -0.086498
    75  C   -0.228416
    76  C    0.107253
    77  C    0.107253
    78  C   -0.228416
    79  C    0.394949
    80  C    0.394949
    81  N   -0.297295
    82  N   -0.573382
    83  H    0.122068
    84  H    0.122068
    85  H    0.137103
    86  H    0.137103
    87  C   -0.086498
    88  C   -0.086498
    89  C   -0.228416
    90  C    0.107253
    91  C    0.107253
    92  C   -0.228416
    93  C    0.394949
    94  C    0.394949
    95  N   -0.297295
    96  N   -0.573382
    97  H    0.122068
    98  H    0.122068
    99  H    0.137103
   100  H    0.137103
   101  C   -0.086498
   102  C   -0.086498
   103  C   -0.228416
   104  C    0.107253
   105  C    0.107253
   106  C   -0.228416
   107  C    0.394949
   108  C    0.394949
   109  N   -0.297295
   110  H    0.122068
   111  H    0.122068
   112  H    0.137103
   113  H    0.137103
   114  Zn  -0.088966
 Sum of Mulliken charges =  -0.00000

 Dipole moment (field-independent basis, Debye):
    X=              0.0000    Y=              0.0000    Z=             -0.0000  Tot=              0.0000
 Quadrupole moment (field-independent basis, Debye-Ang):
   XX=           -420.7361   YY=           -420.7361   ZZ=           -503.3302
   XY=              0.0000   XZ=              0.0000   YZ=             -0.0000

 Normal termination of Gaussian 09 at Wed Dec 18 22:35:41 2024.
