 Gaussian 09, Revision E.01,
 Gaussian 09:  ES64L-G09RevE.01 30-Nov-2015

 --------------------------------
 #p opt=readopt b3pw91/6-31g(d,p)
 --------------------------------

 -------------------
 Title Card Required
 -------------------
 Symbolic Z-matrix:
 Charge =  0 Multiplicity = 1

 SCF Done:  E(RB3PW91) =  -3445.72114587     A.U. after   13 cycles
 SCF Done:  E(RB3PW91) =  -3445.72562998     A.U. after   12 cycles
 SCF Done:  E(RB3PW91) =  -3445.72588414     A.U. after   10 cycles
 SCF Done:  E(RB3PW91) =  -3445.72594231     A.U. after   10 cycles
 SCF Done:  E(RB3PW91) =  -3445.72595804     A.U. after    9 cycles
 SCF Done:  E(RB3PW91) =  -3445.72596741     A.U. after    9 cycles
 SCF Done:  E(RB3PW91) =  -3445.72596998     A.U. after    8 cycles
 Optimization completed.
    -- Stationary point found.

                          Input orientation:
 ---------------------------------------------------------------------
 Center     Atomic      Atomic             Coordinates (Angstroms)
 Number     Number       Type             X           Y           Z
 ---------------------------------------------------------------------
      1         30           0        0.000214    0.002745    0.002279
      2          7           0        0.003096    0.129320    3.373279
      3          7           0        1.403159    0.058062    1.402272
      4          7           0        3.372771    0.009009   -0.000826
      5          7           0        1.400730   -0.048423   -1.400291
      6          6           0        1.174901    0.108282    2.751114
      7          6           0        2.456147    0.136731    3.445554
      8          6           0        2.791378    0.186619    4.796989
      9          6           0        4.143302    0.200093    5.127409
     10          6           0        5.136302    0.164889    4.133173
     11          6           0        4.803073    0.115330    2.782763
     12          6           0        3.450110    0.101500    2.450313
     13          6           0        2.752483    0.052092    1.171328
     14          6           0        2.750436   -0.036736   -1.171796
     15          6           0        3.445894   -0.083172   -2.452068
     16          6           0        4.798304   -0.091080   -2.786924
     17          6           0        5.129329   -0.139522   -4.137891
     18          6           0        4.134713   -0.179254   -5.130348
     19          6           0        2.783336   -0.171522   -4.797531
     20          6           0        2.450284   -0.122908   -3.445507
     21          6           0        1.170201   -0.099824   -2.748705
     22          7           0       -0.002664   -0.125958   -3.368642
     23          7           0       -1.402729   -0.053740   -1.397672
     24          7           0       -3.372343   -0.003998    0.005405
     25          7           0       -1.400300    0.052650    1.404894
     26          6           0       -1.174471   -0.104371   -2.746502
     27          6           0       -2.455720   -0.132542   -3.440946
     28          6           0       -2.790958   -0.182483   -4.792377
     29          6           0       -4.142884   -0.195471   -5.122809
     30          6           0       -5.135880   -0.159610   -4.128594
     31          6           0       -4.802645   -0.109868   -2.778191
     32          6           0       -3.449681   -0.096649   -2.445726
     33          6           0       -2.752052   -0.047374   -1.166737
     34          6           0       -2.750007    0.041509    1.176384
     35          6           0       -3.445465    0.088294    2.456645
     36          6           0       -4.797875    0.096985    2.791480
     37          6           0       -5.128894    0.145459    4.142447
     38          6           0       -4.134271    0.184562    5.134923
     39          6           0       -2.782894    0.176166    4.802123
     40          6           0       -2.449849    0.127396    3.450103
     41          6           0       -1.169768    0.103789    2.753314
     42          0           0        0.172291    3.075117   -3.763092
     43          1           0       -5.559058    0.066602    2.018517
     44          1           0       -6.173922    0.153379    4.439103
     45          1           0       -4.429532    0.221986    6.179704
     46          1           0       -2.008371    0.206130    5.561732
     47          1           0        2.018051    0.213574    5.557921
     48          1           0        4.440293    0.238504    6.171666
     49          1           0        6.181826    0.176752    4.427940
     50          1           0        5.563062    0.087934    2.008516
     51          1           0        5.559481   -0.060214   -2.013974
     52          1           0        6.174357   -0.146916   -4.434560
     53          1           0        4.429978   -0.216622   -6.175130
     54          1           0        2.008819   -0.201968   -5.557126
     55          1           0       -2.017633   -0.209937   -5.553295
     56          1           0       -4.439878   -0.233992   -6.167062
     57          1           0       -6.181406   -0.171098   -4.423370
     58          1           0       -5.562631   -0.081979   -2.003959
 ---------------------------------------------------------------------

 Alpha  occ. eigenvalues -- -347.22022 -42.21266 -37.19752 -37.19117 -37.19117
 Alpha  occ. eigenvalues --  -14.34542 -14.34542 -14.34542 -14.34542 -14.33346
 Alpha  occ. eigenvalues --  -14.33346 -14.33346 -14.33346 -10.25543 -10.25543
 Alpha  occ. eigenvalues --  -10.25543 -10.25543 -10.25542 -10.25542 -10.25542
 Alpha  occ. eigenvalues --  -10.25541 -10.18983 -10.18983 -10.18983 -10.18983
 Alpha  occ. eigenvalues --  -10.18975 -10.18975 -10.18975 -10.18975 -10.18917
 Alpha  occ. eigenvalues --  -10.18916 -10.18916 -10.18916 -10.18887 -10.18887
 Alpha  occ. eigenvalues --  -10.18886 -10.18886 -10.18867 -10.18867 -10.18867
 Alpha  occ. eigenvalues --  -10.18867 -10.18843 -10.18843 -10.18843 -10.18843
 Alpha  occ. eigenvalues --   -4.80505  -3.20160  -3.19068  -3.19067  -1.01819
 Alpha  occ. eigenvalues --   -1.00364  -1.00363  -0.97525  -0.95337  -0.91163
 Alpha  occ. eigenvalues --   -0.91162  -0.87973  -0.86290  -0.86219  -0.86219
 Alpha  occ. eigenvalues --   -0.86162  -0.78109  -0.76914  -0.76777  -0.76777
 Alpha  occ. eigenvalues --   -0.76330  -0.76329  -0.76318  -0.76007  -0.72684
 Alpha  occ. eigenvalues --   -0.70031  -0.70029  -0.64641  -0.64236  -0.63566
 Alpha  occ. eigenvalues --   -0.63565  -0.62976  -0.62530  -0.60063  -0.60062
 Alpha  occ. eigenvalues --   -0.59863  -0.59087  -0.56053  -0.55390  -0.55388
 Alpha  occ. eigenvalues --   -0.53837  -0.53818  -0.53816  -0.50578  -0.50476
 Alpha  occ. eigenvalues --   -0.49460  -0.49380  -0.48488  -0.48488  -0.46914
 Alpha  occ. eigenvalues --   -0.46893  -0.46892  -0.46761  -0.46760  -0.46478
 Alpha  occ. eigenvalues --   -0.45554  -0.45365  -0.44357  -0.44332  -0.44199
 Alpha  occ. eigenvalues --   -0.44198  -0.44056  -0.43958  -0.43958  -0.43105
 Alpha  occ. eigenvalues --   -0.42828  -0.42827  -0.42370  -0.41599  -0.39961
 Alpha  occ. eigenvalues --   -0.38881  -0.37252  -0.36967  -0.36967  -0.36856
 Alpha  occ. eigenvalues --   -0.36856  -0.36777  -0.36190  -0.35843  -0.35838
 Alpha  occ. eigenvalues --   -0.35571  -0.35238  -0.34273  -0.34272  -0.34248
 Alpha  occ. eigenvalues --   -0.32377  -0.32376  -0.30805  -0.28146  -0.28034
 Alpha  occ. eigenvalues --   -0.28031  -0.26521  -0.26207  -0.26197  -0.26086
 Alpha  occ. eigenvalues --   -0.26086  -0.25478  -0.25371  -0.25371  -0.25265
 Alpha  occ. eigenvalues --   -0.24608  -0.18666
 Alpha virt. eigenvalues --   -0.10561  -0.10561  -0.04333  -0.03464  -0.02887
 Alpha virt. eigenvalues --   -0.02350  -0.02349   0.02362   0.02635   0.02636
 Alpha virt. eigenvalues --    0.03424   0.04369   0.05024   0.05894   0.10162

 Mulliken charges:
               1
     1  Zn   1.018217
     2  N   -0.572642
     3  N   -0.751971
     4  N   -0.572627
     5  N   -0.751982
     6  C    0.512442
     7  C    0.019285
     8  C   -0.140585
     9  C   -0.128249
    10  C   -0.128221
    11  C   -0.140651
    12  C    0.019383
    13  C    0.512501
    14  C    0.512535
    15  C    0.019331
    16  C   -0.140626
    17  C   -0.128229
    18  C   -0.128242
    19  C   -0.140603
    20  C    0.019321
    21  C    0.512426
    22  N   -0.572640
    23  N   -0.751970
    24  N   -0.572627
    25  N   -0.751982
    26  C    0.512440
    27  C    0.019287
    28  C   -0.140586
    29  C   -0.128249
    30  C   -0.128221
    31  C   -0.140650
    32  C    0.019381
    33  C    0.512503
    34  C    0.512533
    35  C    0.019333
    36  C   -0.140626
    37  C   -0.128229
    38  C   -0.128242
    39  C   -0.140603
    40  C    0.019319
    41  C    0.512429
    42  Bq   0.000000
    43  H    0.144143
    44  H    0.127928
    45  H    0.127925
    46  H    0.144149
    47  H    0.144152
    48  H    0.127927
    49  H    0.127929
    50  H    0.144143
    51  H    0.144143
    52  H    0.127928
    53  H    0.127925
    54  H    0.144149
    55  H    0.144151
    56  H    0.127927
    57  H    0.127929
    58  H    0.144143
 Sum of Mulliken charges =  -0.00000

 Dipole moment (field-independent basis, Debye):
    X=             -0.0000    Y=              0.0031    Z=             -0.0001  Tot=              0.0031
 Quadrupole moment (field-independent basis, Debye-Ang):
   XX=           -201.7211   YY=           -241.2395   ZZ=           -201.7843
   XY=              0.0774   XZ=             -0.0014   YZ=              1.4318

 Normal termination of Gaussian 09 at Wed Jun 11 02:47:41 2025.
