 Gaussian 09, Revision E.01,
 Gaussian 09:  ES64L-G09RevE.01 30-Nov-2015

 -----------------------------
 #p opt=readopt b3pw91/6-31g**
 -----------------------------

 -------------------
 Title Card Required
 -------------------
 Symbolic Z-matrix:
 Charge =  0 Multiplicity = 1

 SCF Done:  E(RB3PW91) =  -3445.72105855     A.U. after   13 cycles
 SCF Done:  E(RB3PW91) =  -3445.72384514     A.U. after   10 cycles
 SCF Done:  E(RB3PW91) =  -3445.72385747     A.U. after    8 cycles
 Optimization completed.
    -- Stationary point found.

                          Input orientation:
 ---------------------------------------------------------------------
 Center     Atomic      Atomic             Coordinates (Angstroms)
 Number     Number       Type             X           Y           Z
 ---------------------------------------------------------------------
      1         30           0        0.000000    0.000000    0.000000
      2          7           0       -2.037693   -2.512327    0.897998
      3          7           0       -0.327903   -0.983865    1.686881
      4          7           0        1.236086    0.130082    3.165567
      5          7           0        1.358344    1.088222    0.940640
      6          6           0       -1.241576   -1.988602    1.831113
      7          6           0       -1.254731   -2.419619    3.215735
      8          6           0       -2.008771   -3.385526    3.877945
      9          6           0       -1.786988   -3.536479    5.239992
     10          6           0       -0.844423   -2.760841    5.921015
     11          6           0       -0.081198   -1.799789    5.256296
     12          6           0       -0.303883   -1.646409    3.889233
     13          6           0        0.277641   -0.747485    2.894663
     14          6           0        1.737313    0.961052    2.255028
     15          6           0        2.804594    1.915309    2.530949
     16          6           0        3.562528    2.191005    3.669750
     17          6           0        4.539025    3.173414    3.569415
     18          6           0        4.755783    3.867993    2.379192
     19          6           0        4.001704    3.604432    1.240391
     20          6           0        3.028898    2.613286    1.334455
     21          6           0        2.097905    2.075485    0.358697
     22          7           0        2.037693    2.512327   -0.897998
     23          7           0        0.327903    0.983865   -1.686881
     24          7           0       -1.236086   -0.130082   -3.165567
     25          7           0       -1.358344   -1.088222   -0.940640
     26          6           0        1.241576    1.988602   -1.831113
     27          6           0        1.254731    2.419619   -3.215735
     28          6           0        2.008771    3.385526   -3.877945
     29          6           0        1.786988    3.536479   -5.239992
     30          6           0        0.844423    2.760841   -5.921015
     31          6           0        0.081198    1.799789   -5.256296
     32          6           0        0.303883    1.646409   -3.889233
     33          6           0       -0.277641    0.747485   -2.894663
     34          6           0       -1.737313   -0.961052   -2.255028
     35          6           0       -2.804594   -1.915309   -2.530949
     36          6           0       -3.562528   -2.191005   -3.669750
     37          6           0       -4.539025   -3.173414   -3.569415
     38          6           0       -4.755783   -3.867993   -2.379192
     39          6           0       -4.001704   -3.604432   -1.240391
     40          6           0       -3.028898   -2.613286   -1.334455
     41          6           0       -2.097905   -2.075485   -0.358697
     42          0           0        0.000000    4.853800    0.000000
     43          1           0       -0.653808    1.192583   -5.774273
     44          1           0        0.704287    2.911033   -6.987890
     45          1           0        2.359185    4.275636   -5.794543
     46          1           0        2.740488    3.983328   -3.344780
     47          1           0        4.162164    4.138271    0.309504
     48          1           0        5.529133    4.630523    2.343616
     49          1           0        5.148694    3.408174    4.437797
     50          1           0        3.391927    1.649615    4.594762
     51          1           0        0.653808   -1.192583    5.774273
     52          1           0       -0.704287   -2.911033    6.987890
     53          1           0       -2.359185   -4.275636    5.794543
     54          1           0       -2.740488   -3.983328    3.344780
     55          1           0       -4.162164   -4.138271   -0.309504
     56          1           0       -5.529133   -4.630523   -2.343616
     57          1           0       -5.148694   -3.408174   -4.437797
     58          1           0       -3.391927   -1.649615   -4.594762
 ---------------------------------------------------------------------

 Alpha  occ. eigenvalues -- -347.22015 -42.21268 -37.19755 -37.19119 -37.19116
 Alpha  occ. eigenvalues --  -14.34576 -14.34576 -14.34543 -14.34543 -14.33468
 Alpha  occ. eigenvalues --  -14.33468 -14.33375 -14.33375 -10.25623 -10.25623
 Alpha  occ. eigenvalues --  -10.25566 -10.25566 -10.25453 -10.25453 -10.25438
 Alpha  occ. eigenvalues --  -10.25437 -10.19011 -10.19011 -10.18980 -10.18980
 Alpha  occ. eigenvalues --  -10.18917 -10.18917 -10.18909 -10.18909 -10.18896
 Alpha  occ. eigenvalues --  -10.18896 -10.18862 -10.18862 -10.18828 -10.18828
 Alpha  occ. eigenvalues --  -10.18764 -10.18764 -10.18746 -10.18746 -10.18718
 Alpha  occ. eigenvalues --  -10.18718 -10.18708 -10.18708 -10.18707 -10.18707
 Alpha  occ. eigenvalues --   -4.80510  -3.20165  -3.19083  -3.19060  -1.01811
 Alpha  occ. eigenvalues --   -1.00400  -1.00319  -0.97606  -0.95189  -0.91257
 Alpha  occ. eigenvalues --   -0.90955  -0.87952  -0.86408  -0.86366  -0.86338
 Alpha  occ. eigenvalues --   -0.86296  -0.78092  -0.77061  -0.76896  -0.76841
 Alpha  occ. eigenvalues --   -0.76453  -0.76386  -0.76366  -0.76009  -0.72601
 Alpha  occ. eigenvalues --   -0.69962  -0.69929  -0.64589  -0.64338  -0.63678
 Alpha  occ. eigenvalues --   -0.63650  -0.62954  -0.62556  -0.60035  -0.59977
 Alpha  occ. eigenvalues --   -0.59884  -0.58994  -0.56147  -0.55493  -0.55378
 Alpha  occ. eigenvalues --   -0.53880  -0.53792  -0.53751  -0.50505  -0.50388
 Alpha  occ. eigenvalues --   -0.49529  -0.49419  -0.48446  -0.48410  -0.46959
 Alpha  occ. eigenvalues --   -0.46915  -0.46831  -0.46792  -0.46768  -0.46404
 Alpha  occ. eigenvalues --   -0.45590  -0.45384  -0.44454  -0.44349  -0.44285
 Alpha  occ. eigenvalues --   -0.44247  -0.44081  -0.43964  -0.43952  -0.43074
 Alpha  occ. eigenvalues --   -0.42902  -0.42859  -0.42443  -0.41652  -0.39962
 Alpha  occ. eigenvalues --   -0.38770  -0.37075  -0.36936  -0.36866  -0.36859
 Alpha  occ. eigenvalues --   -0.36851  -0.36783  -0.36033  -0.36029  -0.35798
 Alpha  occ. eigenvalues --   -0.35691  -0.35301  -0.34368  -0.34367  -0.34268
 Alpha  occ. eigenvalues --   -0.32447  -0.32287  -0.30928  -0.28270  -0.28090
 Alpha  occ. eigenvalues --   -0.28073  -0.26581  -0.26337  -0.26160  -0.26090
 Alpha  occ. eigenvalues --   -0.26028  -0.25507  -0.25461  -0.25433  -0.25351
 Alpha  occ. eigenvalues --   -0.24559  -0.18617
 Alpha virt. eigenvalues --   -0.10596  -0.10503  -0.04294  -0.03488  -0.02947
 Alpha virt. eigenvalues --   -0.02400  -0.02383   0.02554   0.02736   0.02828
 Alpha virt. eigenvalues --    0.03425   0.04415   0.05009   0.05907   0.10117

 Mulliken charges:
               1
     1  Zn   1.019952
     2  N   -0.576209
     3  N   -0.753315
     4  N   -0.571698
     5  N   -0.752864
     6  C    0.516685
     7  C    0.016046
     8  C   -0.136051
     9  C   -0.128093
    10  C   -0.127437
    11  C   -0.142367
    12  C    0.020257
    13  C    0.509886
    14  C    0.506173
    15  C    0.022080
    16  C   -0.142467
    17  C   -0.125557
    18  C   -0.128305
    19  C   -0.137677
    20  C    0.014962
    21  C    0.518502
    22  N   -0.576209
    23  N   -0.753315
    24  N   -0.571698
    25  N   -0.752864
    26  C    0.516685
    27  C    0.016046
    28  C   -0.136051
    29  C   -0.128093
    30  C   -0.127437
    31  C   -0.142367
    32  C    0.020257
    33  C    0.509886
    34  C    0.506173
    35  C    0.022080
    36  C   -0.142467
    37  C   -0.125557
    38  C   -0.128305
    39  C   -0.137677
    40  C    0.014962
    41  C    0.518502
    42  Bq   0.000000
    43  H    0.144884
    44  H    0.127657
    45  H    0.126685
    46  H    0.144820
    47  H    0.144600
    48  H    0.127311
    49  H    0.127378
    50  H    0.144138
    51  H    0.144884
    52  H    0.127657
    53  H    0.126685
    54  H    0.144820
    55  H    0.144600
    56  H    0.127311
    57  H    0.127378
    58  H    0.144138
 Sum of Mulliken charges =  -0.00000

 Dipole moment (field-independent basis, Debye):
    X=              0.0000    Y=             -0.0000    Z=              0.0000  Tot=              0.0000
 Quadrupole moment (field-independent basis, Debye-Ang):
   XX=           -219.1322   YY=           -221.4708   ZZ=           -204.4540
   XY=             18.8694   XZ=              5.7149   YZ=             -6.3518

 Normal termination of Gaussian 09 at Tue Jun 17 03:26:37 2025.
